$hessian                                                                        
        0.4338963082  -0.4060399054   0.1014258565  -0.3782513602   0.3336927600
       -0.1061700252  -0.0001858693   0.0177813574  -0.0088068843  -0.0037390105
        0.0071970035   0.0001746754  -0.0493925982   0.0439239006   0.0147083455
        0.0000281192  -0.0005109307   0.0007939358  -0.0018816959   0.0024290837
       -0.0008093127  -0.0010465110   0.0010515786  -0.0009265200   0.0005726176
        0.0004751523  -0.0003900709
       -0.4060399054   0.4437348657  -0.1257336401   0.3290044625  -0.4076435257
        0.1191534594   0.0214795301  -0.0141413326   0.0179452064   0.0078155003
       -0.0028520686   0.0019262784   0.0442125473  -0.0160865579  -0.0145608256
        0.0024022291  -0.0029363487   0.0012307780   0.0002549630   0.0006649559
       -0.0005785629  -0.0000131820   0.0005771808   0.0003446773   0.0008838551
       -0.0013171688   0.0002726291
        0.1014258565  -0.1257336401   0.0927624343  -0.0981989868   0.1124003711
       -0.1079716222  -0.0150190912   0.0231992639  -0.0030909707  -0.0008812028
        0.0028090532   0.0013877245   0.0142056745  -0.0141688439   0.0163478673
        0.0004067754   0.0003598272   0.0005177579  -0.0017394029   0.0014197017
       -0.0011739346  -0.0005874764   0.0001601429   0.0004729426   0.0003878537
       -0.0004458760   0.0007478009
       -0.3782513602   0.3290044625  -0.0981989868   0.6273804357  -0.4124076534
        0.0576318918  -0.0596087857   0.0007857540  -0.0237910703  -0.0431644478
        0.0485090317  -0.0044643357  -0.1446235472   0.0401513316   0.0606707177
       -0.0033626043   0.0073551615  -0.0066523756   0.0062374124  -0.0151628266
        0.0125609342  -0.0016174492   0.0002482118   0.0017984505  -0.0029896538
        0.0015165268   0.0004447741
        0.3336927600  -0.4076435257   0.1124003711  -0.4124076534   0.6288786424
       -0.1670442107   0.0124499286  -0.1095903769   0.0401739495   0.0485165877
       -0.0351208882   0.0080895814   0.0180367944  -0.0704629716   0.0007963210
       -0.0079610448   0.0118243948  -0.0085071246   0.0039189614  -0.0141005225
        0.0144776902   0.0022203194  -0.0031955299   0.0002904513   0.0015333466
       -0.0005892225  -0.0006770292
       -0.1061700252   0.1191534594  -0.1079716222   0.0576318918  -0.1670442107
        0.3804607341  -0.0434805315   0.0568764330  -0.1090046944  -0.0045793468
        0.0081647112   0.0036094119   0.0980182270  -0.0308348120  -0.1428303298
       -0.0056341057   0.0110312283  -0.0185368453   0.0052592141   0.0002492212
       -0.0022036440   0.0001620817   0.0010126925  -0.0011405323  -0.0012074055
        0.0013912772  -0.0023824778
       -0.0001858693   0.0214795301  -0.0150190912  -0.0596087857   0.0124499286
       -0.0434805315   0.4484205006   0.0870840704  -0.0467224350  -0.1376175280
        0.0119717742   0.0721687213  -0.0107848475   0.0123194918   0.0441732117
       -0.0586081396  -0.0272965117  -0.0588790089  -0.1634683312  -0.1237553351
        0.0325048001   0.0004369394   0.0007289259  -0.0009771143  -0.0185839386
        0.0050181258   0.0162314479
        0.0177813574  -0.0141413326   0.0231992639   0.0007857540  -0.1095903769
        0.0568764330   0.0870840704   0.4371522317   0.0127052849   0.0270641696
       -0.0691514155  -0.0450781003   0.0040178516   0.0089172823   0.0376403402
       -0.0301881381  -0.0888128180  -0.1030021509  -0.1184890153  -0.1607344438
        0.0297529551   0.0166952710  -0.0049679968  -0.0165407798  -0.0047513206
        0.0013288696   0.0044467538
       -0.0088068843   0.0179452064  -0.0030909707  -0.0237910703   0.0401739495
       -0.1090046944  -0.0467224350   0.0127052849   0.5640051779   0.0467339973
       -0.0235509029  -0.1002080294   0.0581989290   0.0257786031  -0.0921315854
       -0.0592617078  -0.0964585665  -0.2171277764   0.0288798127   0.0266650535
       -0.0404507977   0.0085324809  -0.0037339435  -0.0073560116  -0.0037631225
        0.0004753155   0.0053646878
       -0.0037390105   0.0078155003  -0.0008812028  -0.0431644478   0.0485165877
       -0.0045793468  -0.1376175280   0.0270641696   0.0467339973   0.5437407392
       -0.0215632547   0.0300871252  -0.0635889572   0.0049921135  -0.0051125015
        0.0057516017  -0.0030681159  -0.0026999859  -0.0166782898   0.0076395410
        0.0092363790  -0.0434119849  -0.0155319372  -0.0063052477  -0.2412921227
       -0.0558646044  -0.0664792169
        0.0071970035  -0.0028520686   0.0028090532   0.0485090317  -0.0351208882
        0.0081647112   0.0119717742  -0.0691514155  -0.0235509029  -0.0215632547
        0.5160754972   0.0700908292   0.0261252927  -0.1116120472   0.0477142593
        0.0118816725  -0.0065747731  -0.0065212395  -0.0141608646   0.0067522967
        0.0079955981  -0.0168733328  -0.2416311513  -0.0869856713  -0.0530873226
       -0.0558854500  -0.0197166372
        0.0001746754   0.0019262784   0.0013877245  -0.0044643357   0.0080895814
        0.0036094119   0.0721687213  -0.0450781003  -0.1002080294   0.0300871252
        0.0700908292   0.3784313216  -0.0408639914   0.0779453104  -0.1344143064
        0.0163840360  -0.0086325714  -0.0109503724   0.0017869480   0.0002546898
       -0.0017761038  -0.0071560224  -0.0840248651  -0.0741035046  -0.0681171564
       -0.0205711523  -0.0619761413
       -0.0493925982   0.0442125473   0.0142056745  -0.1446235472   0.0180367944
        0.0980182270  -0.0107848475   0.0040178516   0.0581989290  -0.0635889572
        0.0261252927  -0.0408639914   0.2734181709  -0.1132050143  -0.1100513942
        0.0010003913  -0.0043468323   0.0052902684   0.0018120212  -0.0010241344
        0.0001437041   0.0014854930   0.0047893273  -0.0009970402  -0.0093261262
        0.0213941678  -0.0239443771
        0.0439239006  -0.0160865579  -0.0141688439   0.0401513316  -0.0704629716
       -0.0308348120   0.0123194918   0.0089172823   0.0257786031   0.0049921135
       -0.1116120472   0.0779453104  -0.1132050143   0.2125714473  -0.0911579792
       -0.0018600582  -0.0011270838   0.0051051299  -0.0015170622   0.0020467476
       -0.0013695665   0.0102514960  -0.0263156968   0.0252545240   0.0049438011
        0.0020688802   0.0034476343
        0.0147083455  -0.0145608256   0.0163478673   0.0606707177   0.0007963210
       -0.1428303298   0.0441732117   0.0376403402  -0.0921315854  -0.0051125015
        0.0477142593  -0.1344143064  -0.1100513942  -0.0911579792   0.3740218896
        0.0010085178   0.0024497649  -0.0048879450   0.0010125860   0.0041045894
       -0.0088905074   0.0017061952   0.0020085262   0.0052419159  -0.0081156782
        0.0110050039  -0.0124569988
        0.0000281192   0.0024022291   0.0004067754  -0.0033626043  -0.0079610448
       -0.0056341057  -0.0586081396  -0.0301881381  -0.0592617078   0.0057516017
        0.0118816725   0.0163840360   0.0010003913  -0.0018600582   0.0010085178
        0.0630093601   0.0366421398   0.0620318371  -0.0068226681  -0.0122828868
       -0.0180097025  -0.0020562838   0.0007735180   0.0026799253   0.0010602236
        0.0005925685   0.0003944243
       -0.0005109307  -0.0029363487   0.0003598272   0.0073551615   0.0118243948
        0.0110312283  -0.0272965117  -0.0888128180  -0.0964585665  -0.0030681159
       -0.0065747731  -0.0086325714  -0.0043468323  -0.0011270838   0.0024497649
        0.0366421398   0.0985875422   0.1117967588  -0.0098772232  -0.0111364671
       -0.0194204567   0.0017756596  -0.0004483265  -0.0016837764  -0.0006733470
        0.0006238801   0.0005577919
        0.0007939358   0.0012307780   0.0005177579  -0.0066523756  -0.0085071246
       -0.0185368453  -0.0588790089  -0.1030021509  -0.2171277764  -0.0026999859
       -0.0065212395  -0.0109503724   0.0052902684   0.0051051299  -0.0048879450
        0.0620318371   0.1117967588   0.2479028445  -0.0004700236  -0.0003819806
        0.0035274100   0.0008036590   0.0004553710  -0.0011613764  -0.0002183062
       -0.0001755421   0.0007163033
       -0.0018816959   0.0002549630  -0.0017394029   0.0062374124   0.0039189614
        0.0052592141  -0.1634683312  -0.1184890153   0.0288798127  -0.0166782898
       -0.0141608646   0.0017869480   0.0018120212  -0.0015170622   0.0010125860
       -0.0068226681  -0.0098772232  -0.0004700236   0.1823656139   0.1398329757
       -0.0367541158   0.0008344194  -0.0004241988  -0.0007926354  -0.0023984819
        0.0004614639   0.0028176169
        0.0024290837   0.0006649559   0.0014197017  -0.0151628266  -0.0141005225
        0.0002492212  -0.1237553351  -0.1607344438   0.0266650535   0.0076395410
        0.0067522967   0.0002546898  -0.0010241344   0.0020467476   0.0041045894
       -0.0122828868  -0.0111364671  -0.0003819806   0.1398329757   0.1756933058
       -0.0312796885   0.0004131090   0.0010003700   0.0001088677   0.0019104735
       -0.0001862425  -0.0011404541
       -0.0008093127  -0.0005785629  -0.0011739346   0.0125609342   0.0144776902
       -0.0022036440   0.0325048001   0.0297529551  -0.0404507977   0.0092363790
        0.0079955981  -0.0017761038   0.0001437041  -0.0013695665  -0.0088905074
       -0.0180097025  -0.0194204567   0.0035274100  -0.0367541158  -0.0312796885
        0.0514819385   0.0005658986   0.0002063980   0.0005338679   0.0005614150
        0.0002156332  -0.0010482289
       -0.0010465110  -0.0000131820  -0.0005874764  -0.0016174492   0.0022203194
        0.0001620817   0.0004369394   0.0166952710   0.0085324809  -0.0434119849
       -0.0168733328  -0.0071560224   0.0014854930   0.0102514960   0.0017061952
       -0.0020562838   0.0017756596   0.0008036590   0.0008344194   0.0004131090
        0.0005658986   0.0495435516   0.0120976601   0.0079219359  -0.0041681745
       -0.0265670003  -0.0119487525
        0.0010515786   0.0005771808   0.0001601429   0.0002482118  -0.0031955299
        0.0010126925   0.0007289259  -0.0049679968  -0.0037339435  -0.0155319372
       -0.2416311513  -0.0840248651   0.0047893273  -0.0263156968   0.0020085262
        0.0007735180  -0.0004483265   0.0004553710  -0.0004241988   0.0010003700
        0.0002063980   0.0120976601   0.2842083172   0.0899671239  -0.0037330857
       -0.0092271667  -0.0060514457
       -0.0009265200   0.0003446773   0.0004729426   0.0017984505   0.0002904513
       -0.0011405323  -0.0009771143  -0.0165407798  -0.0073560116  -0.0063052477
       -0.0869856713  -0.0741035046  -0.0009970402   0.0252545240   0.0052419159
        0.0026799253  -0.0016837764  -0.0011613764  -0.0007926354   0.0001088677
        0.0005338679   0.0079219359   0.0899671239   0.0800995581  -0.0024017540
       -0.0107554167  -0.0025868596
        0.0005726176   0.0008838551   0.0003878537  -0.0029896538   0.0015333466
       -0.0012074055  -0.0185839386  -0.0047513206  -0.0037631225  -0.2412921227
       -0.0530873226  -0.0681171564  -0.0093261262   0.0049438011  -0.0081156782
        0.0010602236  -0.0006733470  -0.0002183062  -0.0023984819   0.0019104735
        0.0005614150  -0.0041681745  -0.0037330857  -0.0024017540   0.2771256565
        0.0529735997   0.0828741541
        0.0004751523  -0.0013171688  -0.0004458760   0.0015165268  -0.0005892225
        0.0013912772   0.0050181258   0.0013288696   0.0004753155  -0.0558646044
       -0.0558854500  -0.0205711523   0.0213941678   0.0020688802   0.0110050039
        0.0005925685   0.0006238801  -0.0001755421   0.0004614639  -0.0001862425
        0.0002156332  -0.0265670003  -0.0092271667  -0.0107554167   0.0529735997
        0.0631836207   0.0188607573
       -0.0003900709   0.0002726291   0.0007478009   0.0004447741  -0.0006770292
       -0.0023824778   0.0162314479   0.0044467538   0.0053646878  -0.0664792169
       -0.0197166372  -0.0619761413  -0.0239443771   0.0034476343  -0.0124569988
        0.0003944243   0.0005577919   0.0007163033   0.0028176169  -0.0011404541
       -0.0010482289  -0.0119487525  -0.0060514457  -0.0025868596   0.0828741541
        0.0188607573   0.0736219144
