18
 energy: -33.204030973298 gnorm: 0.000063379918 xtb: 6.7.1 (edcfbbe)
O           -1.54058390416461       -0.34035838096064       -2.88592468034396
C           -0.84218456657304       -0.07148528058396       -1.94242154477668
C           -0.38054285730411       -1.16498654906919       -0.98654743580881
C            1.07720093709171       -1.10053236151400       -0.52093737069161
O            1.27593347950136       -0.68775684936766        0.82702598262253
C            0.71538519806771        0.35226043490941        1.44546561958349
O            0.94971512447042        0.50031320538130        2.61739561781979
C           -0.19458945398608        1.32886482623862        0.71022390425210
C            0.24891391654291        1.75926024497517       -0.69121020886915
O           -0.49562647237222        1.20469635132285       -1.77051514731673
H           -1.04704586862094       -1.19917783445821       -0.12079989544263
H           -0.54080972168198       -2.09644360136089       -1.53352198360101
H            1.68624144035442       -0.49203953095700       -1.19827150305874
H            1.49817767326708       -2.10996394643599       -0.52220743704686
H           -1.20953991061068        0.92472736863218        0.67207789731606
H           -0.23855401216067        2.20726181414539        1.35750252745396
H            1.32041203824678        1.58790029421738       -0.84119170124940
H            0.07073732487869        2.83187566458448       -0.80914584939333
