 Entering Gaussian System
 *********************************************
 Gaussian 98:
 frequency output generated by the xtb code
 *********************************************
                         Standard orientation:
 --------------------------------------------------------------------
  Center     Atomic     Atomic              Coordinates (Angstroms)
  Number     Number      Type              X           Y           Z
 --------------------------------------------------------------------
    1          8             0       -1.540584   -0.340358   -2.885925
    2          6             0       -0.842185   -0.071485   -1.942422
    3          6             0       -0.380543   -1.164987   -0.986548
    4          6             0        1.077201   -1.100532   -0.520937
    5          8             0        1.275934   -0.687757    0.827026
    6          6             0        0.715385    0.352260    1.445466
    7          8             0        0.949715    0.500313    2.617396
    8          6             0       -0.194589    1.328865    0.710224
    9          6             0        0.248914    1.759260   -0.691210
   10          8             0       -0.495627    1.204696   -1.770515
   11          1             0       -1.047046   -1.199178   -0.120800
   12          1             0       -0.540810   -2.096444   -1.533522
   13          1             0        1.686242   -0.492040   -1.198272
   14          1             0        1.498178   -2.109964   -0.522207
   15          1             0       -1.209540    0.924727    0.672078
   16          1             0       -0.238554    2.207262    1.357503
   17          1             0        1.320412    1.587900   -0.841192
   18          1             0        0.070737    2.831876   -0.809146
 --------------------------------------------------------------------
     1 basis functions        1 primitive gaussians
     1 alpha electrons        1 beta electrons

 Harmonic frequencies (cm**-1), IR intensities (km*mol⁻¹),
 Raman scattering activities (A**4/amu), Raman depolarization ratios,
 reduced masses (AMU), force constants (mDyne/A) and normal coordinates:
                      1                      2                      3
                        a                      a                      a 
 Frequencies --    69.1892               105.9020               149.3148
 Red. masses --    14.6140                11.9664                12.2838
 Frc consts  --     0.0000                 0.0000                 0.0000
 IR Inten    --    14.8859                 8.8273                14.8426
 Raman Activ --     0.0000                 0.0000                 0.0000
 Depolar     --     0.0000                 0.0000                 0.0000
 Atom AN      X      Y      Z        X      Y      Z        X      Y      Z
   1   8     0.42  -0.01  -0.39     0.33  -0.21  -0.20     0.07   0.05   0.04
   2   6     0.03   0.00  -0.10    -0.03  -0.04   0.02     0.00  -0.00   0.08
   3   6    -0.18   0.01   0.01    -0.19   0.12   0.27    -0.26   0.04   0.26
   4   6    -0.19  -0.09   0.06    -0.08   0.03  -0.07    -0.15  -0.03  -0.07
   5   8    -0.18  -0.13   0.07     0.21   0.14  -0.16     0.30   0.30  -0.25
   6   6     0.09   0.03   0.04     0.05  -0.02  -0.02    -0.06  -0.01  -0.05
   7   8     0.52   0.26  -0.07    -0.22  -0.35   0.08     0.03  -0.02  -0.09
   8   6    -0.10  -0.08   0.13     0.24   0.23   0.05    -0.32  -0.19   0.02
   9   6    -0.18  -0.00   0.12    -0.03   0.05  -0.09    -0.04  -0.03   0.17
  10   8    -0.19   0.04   0.11    -0.28   0.01   0.08     0.47  -0.10  -0.12
  11   1    -0.07   0.04  -0.01    -0.00   0.16   0.12    -0.04   0.08   0.10
  12   1    -0.07  -0.00   0.01    -0.14  -0.01   0.17    -0.14  -0.01   0.12
  13   1    -0.04  -0.03   0.02    -0.05  -0.01  -0.07    -0.08  -0.06  -0.10
  14   1    -0.07  -0.03   0.02    -0.04   0.00  -0.03    -0.07  -0.02   0.00
  15   1    -0.01  -0.06   0.05     0.03   0.17   0.10    -0.07  -0.11  -0.06
  16   1    -0.05  -0.03   0.04     0.20   0.08   0.00    -0.17  -0.08   0.03
  17   1    -0.05   0.01   0.02    -0.02  -0.00  -0.08     0.01   0.04   0.14
  18   1    -0.07  -0.00   0.05    -0.00   0.01  -0.04    -0.04  -0.01   0.05
                      4                      5                      6
                        a                      a                      a 
 Frequencies --   185.8345               255.0860               287.4155
 Red. masses --     9.4072                12.0287                11.2071
 Frc consts  --     0.0000                 0.0000                 0.0000
 IR Inten    --    12.0639                 0.5668                 0.0008
 Raman Activ --     0.0000                 0.0000                 0.0000
 Depolar     --     0.0000                 0.0000                 0.0000
 Atom AN      X      Y      Z        X      Y      Z        X      Y      Z
   1   8     0.02   0.09  -0.04     0.01  -0.11   0.09    -0.18  -0.02  -0.25
   2   6    -0.00   0.09  -0.02     0.00   0.20  -0.00    -0.15  -0.03  -0.22
   3   6     0.07  -0.00  -0.12     0.02   0.35   0.21    -0.09   0.16  -0.03
   4   6     0.02  -0.32   0.10     0.08  -0.04   0.14    -0.06   0.43  -0.02
   5   8     0.25   0.31  -0.09     0.21  -0.29   0.21     0.07   0.11   0.11
   6   6    -0.05   0.08   0.00     0.08  -0.18  -0.04     0.08   0.01   0.25
   7   8    -0.07   0.07   0.01    -0.11   0.09  -0.04     0.09  -0.00   0.29
   8   6    -0.12  -0.05  -0.02    -0.01  -0.35  -0.22     0.04  -0.17   0.06
   9   6     0.19  -0.27   0.02    -0.07   0.04  -0.14     0.16  -0.41  -0.03
  10   8    -0.33   0.16   0.19    -0.16   0.30  -0.23    -0.00  -0.09  -0.14
  11   1    -0.01  -0.04  -0.06     0.02   0.16   0.07    -0.03   0.07  -0.02
  12   1     0.04   0.03  -0.09    -0.07   0.09   0.11     0.01   0.01   0.05
  13   1     0.11  -0.28  -0.05     0.06  -0.02   0.07    -0.06   0.19   0.02
  14   1    -0.13  -0.15   0.19    -0.05  -0.04  -0.01     0.04   0.15  -0.09
  15   1    -0.02  -0.04  -0.05     0.02  -0.15  -0.10     0.02  -0.07   0.02
  16   1    -0.09  -0.01  -0.02    -0.08  -0.13  -0.03    -0.03  -0.01  -0.04
  17   1     0.02  -0.30  -0.00    -0.03   0.03  -0.08     0.03  -0.20  -0.00
  18   1     0.27  -0.05  -0.01    -0.03   0.02   0.05     0.15  -0.10  -0.01
                      7                      8                      9
                        a                      a                      a 
 Frequencies --   333.4903               376.5609               440.9971
 Red. masses --    10.5816                11.1062                11.1649
 Frc consts  --     0.0000                 0.0000                 0.0000
 IR Inten    --     0.4349                 7.7361                11.2870
 Raman Activ --     0.0000                 0.0000                 0.0000
 Depolar     --     0.0000                 0.0000                 0.0000
 Atom AN      X      Y      Z        X      Y      Z        X      Y      Z
   1   8     0.23  -0.07   0.14    -0.11  -0.30   0.13     0.16  -0.37   0.17
   2   6     0.00   0.01   0.24     0.13   0.07  -0.15    -0.03   0.13   0.15
   3   6     0.00   0.00   0.17     0.19   0.29  -0.01    -0.08  -0.04  -0.07
   4   6     0.08   0.24  -0.22     0.15  -0.07  -0.03    -0.20   0.08   0.05
   5   8    -0.25  -0.15  -0.11    -0.26   0.04  -0.06    -0.20   0.17  -0.05
   6   6    -0.18  -0.05  -0.15    -0.21  -0.02   0.02     0.07   0.16   0.10
   7   8    -0.01   0.12  -0.25     0.28  -0.20  -0.06     0.19  -0.36   0.16
   8   6    -0.13  -0.03  -0.11    -0.22   0.19   0.19     0.01  -0.02  -0.12
   9   6     0.30  -0.14   0.04    -0.08  -0.13   0.08     0.11   0.16  -0.11
  10   8    -0.11   0.06   0.28     0.08   0.12  -0.23    -0.00   0.22  -0.15
  11   1     0.08   0.01   0.11     0.09   0.23   0.03    -0.08  -0.24  -0.08
  12   1    -0.04  -0.00   0.07    -0.07   0.05   0.10     0.10   0.07  -0.20
  13   1    -0.06   0.19  -0.02     0.14  -0.09   0.02    -0.06  -0.00  -0.01
  14   1     0.13   0.12  -0.17    -0.03  -0.05   0.05    -0.05   0.02   0.04
  15   1    -0.04  -0.00  -0.12    -0.11   0.18   0.13     0.08  -0.19  -0.16
  16   1    -0.08  -0.03  -0.01     0.09   0.09   0.02    -0.23  -0.02  -0.04
  17   1     0.06  -0.19   0.03    -0.03  -0.12   0.09     0.02   0.02  -0.05
  18   1     0.25  -0.02  -0.01     0.08  -0.02  -0.00     0.05   0.05  -0.01
                     10                     11                     12
                        a                      a                      a 
 Frequencies --   517.5196               556.4288               606.3351
 Red. masses --    10.6761                10.2023                11.2400
 Frc consts  --     0.0000                 0.0000                 0.0000
 IR Inten    --     0.5216                17.5008                 5.7094
 Raman Activ --     0.0000                 0.0000                 0.0000
 Depolar     --     0.0000                 0.0000                 0.0000
 Atom AN      X      Y      Z        X      Y      Z        X      Y      Z
   1   8     0.07  -0.40   0.09     0.16   0.25  -0.04    -0.17  -0.15   0.03
   2   6    -0.08   0.17   0.04    -0.20   0.06   0.25     0.27  -0.09  -0.29
   3   6    -0.10   0.02  -0.20     0.01  -0.09   0.14    -0.07  -0.00  -0.10
   4   6    -0.18   0.02  -0.12     0.02   0.11   0.25    -0.20   0.12   0.23
   5   8     0.19  -0.10  -0.08     0.19   0.03   0.16     0.24   0.08   0.10
   6   6    -0.01  -0.20   0.00    -0.27  -0.18  -0.02    -0.32  -0.25   0.01
   7   8    -0.19   0.36  -0.03     0.22  -0.15  -0.15     0.17  -0.06  -0.14
   8   6     0.10  -0.02   0.20    -0.14   0.06  -0.08    -0.04   0.00  -0.11
   9   6     0.01  -0.07   0.21    -0.13  -0.13  -0.19     0.23   0.24   0.02
  10   8     0.12   0.18  -0.07    -0.01   0.02  -0.25    -0.08  -0.01   0.27
  11   1    -0.09  -0.19  -0.11    -0.04  -0.27  -0.00    -0.16   0.11  -0.13
  12   1     0.08   0.09  -0.23     0.18   0.04  -0.13     0.02  -0.04   0.03
  13   1    -0.07   0.02  -0.04    -0.03   0.06   0.06    -0.10   0.08   0.06
  14   1    -0.05   0.01  -0.08     0.04   0.04   0.02    -0.01   0.06   0.00
  15   1    -0.04   0.16   0.17    -0.13   0.23   0.08    -0.06   0.13  -0.18
  16   1     0.25   0.00   0.07     0.21   0.06  -0.06     0.03  -0.04   0.03
  17   1     0.00  -0.03   0.08    -0.04  -0.08  -0.03     0.07   0.13  -0.03
  18   1     0.03  -0.01   0.09     0.02  -0.03  -0.06    -0.02   0.05   0.01
                     13                     14                     15
                        a                      a                      a 
 Frequencies --   639.5584               655.2951               711.4023
 Red. masses --    12.4043                10.8919                10.1546
 Frc consts  --     0.0000                 0.0000                 0.0000
 IR Inten    --    15.2539                 6.6944                 0.7274
 Raman Activ --     0.0000                 0.0000                 0.0000
 Depolar     --     0.0000                 0.0000                 0.0000
 Atom AN      X      Y      Z        X      Y      Z        X      Y      Z
   1   8    -0.11  -0.19  -0.28    -0.02  -0.12  -0.26    -0.10  -0.04  -0.12
   2   6    -0.39   0.02  -0.03    -0.47   0.03   0.11    -0.05  -0.01  -0.11
   3   6     0.03   0.20   0.02     0.08   0.09   0.00    -0.09  -0.37   0.06
   4   6     0.07   0.09   0.23     0.21  -0.12  -0.18     0.11  -0.19  -0.11
   5   8     0.09  -0.13   0.19    -0.04   0.08  -0.08     0.25  -0.21   0.12
   6   6     0.18   0.18  -0.32    -0.31  -0.23   0.26     0.05   0.01   0.11
   7   8    -0.08  -0.18  -0.30     0.13   0.14   0.19     0.02   0.02   0.15
   8   6    -0.08   0.17   0.07     0.07  -0.04  -0.07    -0.24   0.28   0.10
   9   6     0.09   0.09   0.22     0.20   0.22  -0.01     0.06   0.24   0.02
  10   8     0.15  -0.11   0.16     0.07  -0.07   0.07    -0.04   0.26  -0.22
  11   1    -0.01  -0.08  -0.01     0.16  -0.03   0.11     0.03  -0.01   0.06
  12   1     0.12   0.06  -0.04    -0.02   0.03   0.01    -0.11  -0.12   0.07
  13   1     0.08  -0.01   0.09     0.15  -0.11  -0.03    -0.13   0.12  -0.02
  14   1    -0.07  -0.01   0.05    -0.04  -0.08   0.04     0.21   0.03  -0.15
  15   1     0.02  -0.07  -0.02    -0.00   0.06  -0.18    -0.03   0.00  -0.06
  16   1    -0.12  -0.00   0.08    -0.01  -0.04   0.01    -0.16   0.05   0.06
  17   1     0.02  -0.04   0.12     0.06   0.17  -0.07    -0.01  -0.15   0.09
  18   1     0.08   0.02  -0.02    -0.08   0.04   0.02     0.24   0.09  -0.07
                     16                     17                     18
                        a                      a                      a 
 Frequencies --   797.3017               893.2260               941.1138
 Red. masses --    11.3954                 8.6791                 7.0667
 Frc consts  --     0.0000                 0.0000                 0.0000
 IR Inten    --     7.9590                36.0143                59.9897
 Raman Activ --     0.0000                 0.0000                 0.0000
 Depolar     --     0.0000                 0.0000                 0.0000
 Atom AN      X      Y      Z        X      Y      Z        X      Y      Z
   1   8     0.12   0.04   0.15    -0.06   0.11  -0.02    -0.05  -0.03  -0.02
   2   6     0.07  -0.02   0.14     0.18  -0.18  -0.10     0.08   0.20  -0.14
   3   6    -0.03   0.32  -0.22     0.06   0.14   0.34    -0.11   0.17   0.19
   4   6    -0.11   0.03  -0.20    -0.04   0.13   0.03     0.16  -0.32  -0.06
   5   8     0.24  -0.28   0.05    -0.06  -0.09  -0.24     0.07  -0.02   0.04
   6   6     0.07  -0.02   0.14    -0.10  -0.26   0.03    -0.21   0.12   0.02
   7   8     0.04   0.02   0.19    -0.03   0.12  -0.04     0.02  -0.01  -0.03
   8   6    -0.28   0.26  -0.10     0.17   0.16   0.29     0.11   0.22   0.05
   9   6    -0.11   0.04  -0.20    -0.01   0.14   0.01     0.01  -0.35   0.02
  10   8     0.03  -0.34   0.15    -0.12  -0.11  -0.21     0.00  -0.03   0.09
  11   1    -0.04   0.04  -0.08    -0.06  -0.23   0.01    -0.11  -0.17  -0.02
  12   1    -0.01   0.12  -0.12     0.28   0.07  -0.04     0.03   0.16  -0.17
  13   1     0.06  -0.05  -0.02     0.05  -0.11  -0.07    -0.17   0.13  -0.01
  14   1    -0.18  -0.05  -0.11    -0.15  -0.03   0.06     0.24   0.00  -0.19
  15   1    -0.06   0.03  -0.07     0.13  -0.18  -0.08     0.09  -0.09  -0.12
  16   1    -0.13   0.09  -0.06    -0.20  -0.06   0.19    -0.18   0.10  -0.06
  17   1    -0.03  -0.07   0.02    -0.04  -0.13  -0.03     0.03   0.19  -0.10
  18   1     0.03   0.00  -0.21     0.13   0.05  -0.08    -0.27  -0.13   0.06
                     19                     20                     21
                        a                      a                      a 
 Frequencies --   947.5780              1008.1609              1018.3775
 Red. masses --     8.6740                 7.2053                 9.9716
 Frc consts  --     0.0000                 0.0000                 0.0000
 IR Inten    --    30.9568                 1.2164                37.5296
 Raman Activ --     0.0000                 0.0000                 0.0000
 Depolar     --     0.0000                 0.0000                 0.0000
 Atom AN      X      Y      Z        X      Y      Z        X      Y      Z
   1   8     0.15   0.04   0.11     0.01   0.04   0.04     0.07   0.07   0.00
   2   6    -0.12   0.01   0.23     0.09  -0.11  -0.00    -0.12  -0.08   0.15
   3   6     0.01  -0.06  -0.38    -0.09  -0.17   0.00     0.29   0.13  -0.05
   4   6    -0.05   0.02   0.06    -0.04   0.27  -0.22    -0.18  -0.16   0.26
   5   8     0.11   0.10   0.15     0.11  -0.15   0.19    -0.04  -0.05  -0.30
   6   6    -0.25  -0.10  -0.05     0.01   0.14  -0.04     0.21   0.01  -0.01
   7   8     0.01   0.00  -0.19    -0.01  -0.04  -0.04    -0.06   0.04   0.07
   8   6     0.28   0.15   0.26    -0.12   0.12   0.10    -0.24  -0.01   0.20
   9   6    -0.06  -0.08  -0.01     0.26  -0.21   0.11     0.35  -0.02  -0.00
  10   8    -0.02  -0.08  -0.19    -0.14   0.14  -0.17    -0.18  -0.09  -0.22
  11   1     0.04   0.28  -0.05     0.13  -0.10   0.12    -0.04   0.16  -0.10
  12   1    -0.26  -0.07   0.08    -0.01  -0.06   0.02     0.07   0.01   0.04
  13   1     0.02   0.06   0.10     0.24  -0.17  -0.04    -0.21   0.12   0.06
  14   1     0.02   0.02  -0.02    -0.32  -0.06   0.09     0.13   0.03  -0.08
  15   1     0.18  -0.23  -0.07    -0.06   0.12  -0.15    -0.11   0.14  -0.06
  16   1    -0.24  -0.04   0.15    -0.05   0.05   0.01    -0.01  -0.01   0.07
  17   1    -0.04  -0.05  -0.09     0.09   0.25  -0.12     0.11   0.20  -0.09
  18   1     0.00  -0.02  -0.00    -0.26  -0.09   0.19    -0.14  -0.04   0.05
                     22                     23                     24
                        a                      a                      a 
 Frequencies --  1051.0310              1083.0217              1092.7456
 Red. masses --    10.7637                10.2624                 8.5764
 Frc consts  --     0.0000                 0.0000                 0.0000
 IR Inten    --    12.0491                 4.3332                63.6195
 Raman Activ --     0.0000                 0.0000                 0.0000
 Depolar     --     0.0000                 0.0000                 0.0000
 Atom AN      X      Y      Z        X      Y      Z        X      Y      Z
   1   8     0.03   0.06   0.05    -0.00  -0.06   0.01    -0.05  -0.03  -0.06
   2   6     0.10  -0.13   0.04    -0.02   0.14  -0.03     0.01   0.09  -0.10
   3   6    -0.29   0.18  -0.03    -0.30  -0.14  -0.03     0.29  -0.00   0.07
   4   6     0.24  -0.13  -0.21     0.36   0.17   0.21    -0.37  -0.08  -0.16
   5   8    -0.05   0.17   0.29    -0.05  -0.08  -0.23     0.06   0.05   0.18
   6   6    -0.02   0.15  -0.07     0.07  -0.13   0.00    -0.11   0.05  -0.04
   7   8    -0.01  -0.05  -0.07    -0.03   0.05   0.01    -0.01  -0.02  -0.08
   8   6    -0.07  -0.27   0.21    -0.19   0.01   0.27    -0.10  -0.10   0.26
   9   6     0.24   0.25  -0.02     0.09  -0.05  -0.43     0.10   0.05  -0.40
  10   8    -0.18  -0.23  -0.18     0.11   0.10   0.19     0.09   0.05   0.18
  11   1    -0.12  -0.08  -0.05    -0.19   0.06  -0.09     0.32  -0.13   0.20
  12   1    -0.09   0.15  -0.18    -0.04  -0.05   0.01     0.01   0.01   0.03
  13   1     0.05   0.04   0.00     0.17  -0.06   0.03    -0.10   0.03   0.01
  14   1     0.09  -0.02  -0.06     0.02   0.00   0.13    -0.06   0.00  -0.06
  15   1    -0.06   0.04   0.14    -0.01  -0.11   0.19     0.03  -0.20   0.34
  16   1     0.15  -0.13   0.16    -0.05   0.03   0.04     0.01   0.00   0.03
  17   1     0.04  -0.02  -0.04     0.05   0.11  -0.13     0.05   0.06  -0.07
  18   1     0.09   0.06  -0.03    -0.08  -0.02  -0.09    -0.01   0.01  -0.08
                     25                     26                     27
                        a                      a                      a 
 Frequencies --  1117.7696              1152.4995              1172.5110
 Red. masses --     4.8991                 4.8009                 7.3238
 Frc consts  --     0.0000                 0.0000                 0.0000
 IR Inten    --    43.8157                67.5600                62.9941
 Raman Activ --     0.0000                 0.0000                 0.0000
 Depolar     --     0.0000                 0.0000                 0.0000
 Atom AN      X      Y      Z        X      Y      Z        X      Y      Z
   1   8    -0.02  -0.03   0.01     0.01  -0.02  -0.01     0.04  -0.00   0.03
   2   6     0.11   0.29  -0.13    -0.10   0.05   0.02    -0.01   0.36  -0.03
   3   6    -0.08  -0.06  -0.03     0.14  -0.02   0.09     0.08  -0.10   0.08
   4   6    -0.05   0.01   0.11    -0.03  -0.03  -0.25    -0.02   0.06  -0.17
   5   8    -0.08   0.15  -0.01    -0.04   0.02   0.22    -0.09   0.12   0.23
   6   6     0.27  -0.19  -0.06     0.06   0.08  -0.05     0.16  -0.32  -0.04
   7   8    -0.03   0.01   0.02    -0.01  -0.02  -0.01    -0.01   0.01  -0.05
   8   6    -0.04   0.03   0.08     0.00  -0.05   0.16    -0.05   0.11  -0.09
   9   6    -0.10  -0.05  -0.02    -0.16  -0.06  -0.18     0.14  -0.02   0.11
  10   8     0.02  -0.17   0.03     0.18   0.08   0.11    -0.17  -0.18  -0.10
  11   1     0.33  -0.17   0.26    -0.28   0.16  -0.21    -0.10   0.09  -0.07
  12   1    -0.23   0.09  -0.13     0.24  -0.10   0.14     0.02  -0.03   0.04
  13   1     0.06   0.08   0.17    -0.13  -0.11  -0.27    -0.13  -0.12  -0.27
  14   1     0.08   0.04   0.07     0.04   0.02   0.08     0.12   0.07   0.30
  15   1    -0.09   0.23  -0.38    -0.08   0.21  -0.32     0.04  -0.11   0.11
  16   1     0.02  -0.15   0.23     0.02  -0.16   0.25    -0.03   0.03  -0.04
  17   1    -0.06  -0.08  -0.16    -0.09  -0.10  -0.29     0.09   0.11   0.29
  18   1     0.01  -0.02  -0.11     0.03   0.01   0.08    -0.14  -0.07  -0.29
                     28                     29                     30
                        a                      a                      a 
 Frequencies --  1223.0183              1230.1349              1241.3436
 Red. masses --     5.4539                 4.7591                 8.5934
 Frc consts  --     0.0000                 0.0000                 0.0000
 IR Inten    --   316.3895                18.2167               487.1310
 Raman Activ --     0.0000                 0.0000                 0.0000
 Depolar     --     0.0000                 0.0000                 0.0000
 Atom AN      X      Y      Z        X      Y      Z        X      Y      Z
   1   8     0.01   0.01  -0.00    -0.01   0.01  -0.02    -0.03   0.02  -0.04
   2   6    -0.04  -0.22   0.05     0.00  -0.24   0.04     0.00  -0.45   0.07
   3   6    -0.04   0.04   0.04    -0.03   0.11  -0.12    -0.07   0.21  -0.09
   4   6    -0.05  -0.15  -0.17     0.09   0.08   0.17     0.00  -0.05  -0.05
   5   8    -0.07   0.24   0.09     0.04  -0.16  -0.05    -0.08   0.16   0.15
   6   6     0.15  -0.18  -0.04    -0.11   0.20   0.02     0.23  -0.39  -0.04
   7   8    -0.01   0.01   0.00     0.01  -0.01   0.02    -0.02   0.02  -0.04
   8   6     0.03   0.06   0.00     0.12  -0.08   0.08    -0.12   0.20  -0.07
   9   6    -0.04  -0.15  -0.16    -0.05  -0.07  -0.19    -0.02  -0.05  -0.04
  10   8     0.01   0.25   0.05    -0.01   0.18   0.04     0.10   0.20   0.07
  11   1    -0.12  -0.01  -0.07     0.16  -0.05   0.10     0.09  -0.06   0.05
  12   1     0.16  -0.07   0.08    -0.17   0.10  -0.12    -0.09   0.11  -0.11
  13   1     0.24   0.16   0.38    -0.27  -0.11  -0.35    -0.13   0.01  -0.11
  14   1    -0.09  -0.07  -0.20     0.08   0.04   0.16     0.19   0.07   0.25
  15   1     0.01   0.03  -0.13    -0.01   0.09  -0.18     0.02  -0.08   0.09
  16   1     0.00  -0.10   0.16     0.04  -0.14   0.18    -0.08   0.11  -0.11
  17   1     0.09   0.13   0.43     0.08   0.06   0.46    -0.01   0.04  -0.17
  18   1    -0.07  -0.06  -0.20    -0.07  -0.04  -0.18     0.06   0.04   0.32
                     31                     32                     33
                        a                      a                      a 
 Frequencies --  1309.3355              1310.6176              1338.8059
 Red. masses --     4.2114                 4.4161                 3.9475
 Frc consts  --     0.0000                 0.0000                 0.0000
 IR Inten    --     0.3609                19.6195                58.4139
 Raman Activ --     0.0000                 0.0000                 0.0000
 Depolar     --     0.0000                 0.0000                 0.0000
 Atom AN      X      Y      Z        X      Y      Z        X      Y      Z
   1   8    -0.04  -0.01  -0.06    -0.05  -0.00  -0.08     0.00   0.00   0.01
   2   6    -0.01   0.03  -0.00    -0.02  -0.11   0.03     0.01  -0.11   0.02
   3   6     0.25  -0.17   0.19     0.23  -0.14   0.17    -0.07   0.06  -0.13
   4   6     0.04   0.09   0.04     0.03   0.07   0.00     0.17  -0.01   0.16
   5   8    -0.03   0.04   0.01    -0.04   0.08   0.07    -0.08   0.12   0.08
   6   6     0.01  -0.03   0.00     0.07  -0.08  -0.02     0.04  -0.09  -0.00
   7   8     0.02   0.00   0.07    -0.03   0.00  -0.09     0.01   0.00   0.01
   8   6    -0.08   0.21  -0.26     0.06  -0.18   0.26    -0.09   0.06  -0.13
   9   6     0.02  -0.07  -0.08    -0.04   0.05   0.05     0.04  -0.05   0.23
  10   8    -0.00  -0.05   0.01     0.04   0.11   0.03     0.06   0.16   0.01
  11   1    -0.15   0.09  -0.11    -0.15   0.09  -0.12     0.11  -0.08   0.06
  12   1    -0.35   0.20  -0.26    -0.34   0.21  -0.27     0.08  -0.10   0.13
  13   1    -0.02  -0.02  -0.05    -0.02  -0.00  -0.04    -0.22  -0.05  -0.23
  14   1    -0.21  -0.07  -0.19    -0.19  -0.06  -0.15    -0.24  -0.11  -0.37
  15   1     0.04  -0.11   0.17    -0.04   0.12  -0.18     0.02  -0.11   0.11
  16   1     0.09  -0.26   0.38    -0.11   0.28  -0.39     0.10  -0.10   0.13
  17   1     0.02   0.02   0.05    -0.02   0.00  -0.05    -0.04  -0.00  -0.33
  18   1     0.01   0.02   0.29     0.01  -0.01  -0.27    -0.11  -0.08  -0.44
                     34                     35                     36
                        a                      a                      a 
 Frequencies --  1348.1789              1431.4901              1454.6378
 Red. masses --     4.3391                 1.8446                 1.7480
 Frc consts  --     0.0000                 0.0000                 0.0000
 IR Inten    --    20.6565                11.8816                27.3169
 Raman Activ --     0.0000                 0.0000                 0.0000
 Depolar     --     0.0000                 0.0000                 0.0000
 Atom AN      X      Y      Z        X      Y      Z        X      Y      Z
   1   8     0.02  -0.00   0.04    -0.01  -0.00  -0.00     0.00   0.00   0.01
   2   6     0.02   0.17  -0.04     0.00  -0.02   0.00    -0.01  -0.02   0.00
   3   6    -0.08  -0.00  -0.10    -0.13  -0.13   0.04    -0.12  -0.13   0.05
   4   6     0.17  -0.01   0.15     0.00  -0.02   0.01    -0.00  -0.01   0.00
   5   8    -0.09   0.14   0.10    -0.01   0.02   0.02     0.00   0.01   0.01
   6   6     0.11  -0.14  -0.02     0.01  -0.02  -0.00    -0.01   0.01   0.01
   7   8    -0.02   0.01  -0.04     0.00  -0.00  -0.01    -0.00  -0.00  -0.00
   8   6     0.03  -0.01   0.12     0.15  -0.06  -0.10    -0.15   0.06   0.09
   9   6    -0.02   0.05  -0.21     0.01  -0.01   0.00    -0.01   0.01   0.00
  10   8    -0.07  -0.18  -0.02     0.01   0.02   0.01    -0.00  -0.01  -0.01
  11   1     0.10  -0.06   0.07     0.17   0.41   0.15     0.15   0.44   0.14
  12   1     0.13  -0.12   0.14     0.34   0.13  -0.33     0.32   0.13  -0.32
  13   1    -0.19  -0.05  -0.21    -0.02  -0.00  -0.01    -0.01   0.01  -0.00
  14   1    -0.26  -0.12  -0.38    -0.02  -0.01  -0.04    -0.01  -0.01  -0.02
  15   1    -0.02   0.08  -0.11    -0.14   0.33   0.30     0.15  -0.37  -0.29
  16   1    -0.08   0.13  -0.16    -0.47  -0.09   0.07     0.46   0.08  -0.07
  17   1     0.04   0.00   0.28     0.00   0.00  -0.02    -0.00  -0.01   0.01
  18   1     0.09   0.08   0.43    -0.02  -0.01  -0.04     0.00   0.01   0.02
                     37                     38                     39
                        a                      a                      a 
 Frequencies --  1457.3995              1486.0099              1723.3108
 Red. masses --     1.9165                 1.7493                13.4875
 Frc consts  --     0.0000                 0.0000                 0.0000
 IR Inten    --    13.9934                13.2385              1199.8077
 Raman Activ --     0.0000                 0.0000                 0.0000
 Depolar     --     0.0000                 0.0000                 0.0000
 Atom AN      X      Y      Z        X      Y      Z        X      Y      Z
   1   8    -0.01   0.00  -0.01    -0.00   0.00  -0.00    -0.25  -0.09  -0.35
   2   6    -0.00  -0.05   0.01     0.00   0.00   0.00     0.32   0.11   0.44
   3   6    -0.00   0.02   0.00    -0.01   0.00   0.00    -0.02   0.01  -0.03
   4   6    -0.16   0.05   0.09    -0.15   0.05   0.09    -0.00  -0.01  -0.01
   5   8    -0.02   0.04   0.04    -0.01   0.01   0.03    -0.00   0.00  -0.01
   6   6     0.03  -0.04  -0.00    -0.00  -0.00  -0.00     0.12   0.05   0.53
   7   8    -0.00   0.00  -0.01     0.00  -0.00   0.00    -0.09  -0.05  -0.43
   8   6     0.00   0.02   0.00    -0.01  -0.01   0.00    -0.02   0.01  -0.03
   9   6     0.13   0.12  -0.05    -0.12  -0.12   0.04    -0.00  -0.01  -0.01
  10   8     0.02   0.05   0.02    -0.02  -0.02  -0.01    -0.01   0.00  -0.01
  11   1    -0.01  -0.01  -0.00    -0.00   0.00   0.00    -0.00   0.01  -0.00
  12   1    -0.02   0.02  -0.02    -0.01   0.01  -0.01     0.03  -0.02   0.03
  13   1     0.27  -0.37  -0.09     0.27  -0.40  -0.12     0.00   0.01   0.01
  14   1     0.33   0.14  -0.32     0.32   0.14  -0.31     0.00  -0.00   0.00
  15   1     0.00  -0.00  -0.01    -0.00  -0.00  -0.00    -0.00   0.01  -0.00
  16   1    -0.01   0.02  -0.02     0.01  -0.01   0.01     0.02  -0.02   0.04
  17   1    -0.06  -0.46   0.08     0.07   0.49  -0.04     0.00   0.01   0.01
  18   1    -0.47  -0.07   0.07     0.45   0.07  -0.07    -0.00  -0.00   0.00
                     40                     41                     42
                        a                      a                      a 
 Frequencies --  1739.8510              2924.7274              2933.5219
 Red. masses --    13.4758                 1.8575                 1.8499
 Frc consts  --     0.0000                 0.0000                 0.0000
 IR Inten    --    59.0742                 9.4630                22.6233
 Raman Activ --     0.0000                 0.0000                 0.0000
 Depolar     --     0.0000                 0.0000                 0.0000
 Atom AN      X      Y      Z        X      Y      Z        X      Y      Z
   1   8    -0.25  -0.09  -0.34     0.00  -0.00  -0.00    -0.00   0.00  -0.00
   2   6     0.32   0.10   0.44    -0.00   0.00   0.00     0.00  -0.00   0.00
   3   6    -0.02   0.01  -0.03    -0.01   0.00   0.01    -0.01  -0.00   0.01
   4   6    -0.01   0.01   0.00     0.08   0.15  -0.10     0.08   0.15  -0.10
   5   8     0.01  -0.00   0.02     0.00  -0.00  -0.01     0.00   0.00  -0.01
   6   6    -0.12  -0.05  -0.54    -0.00   0.00   0.00    -0.00   0.00  -0.00
   7   8     0.09   0.05   0.42    -0.00  -0.00   0.00     0.00  -0.00   0.00
   8   6     0.02  -0.01   0.03     0.01   0.01   0.00    -0.01  -0.01   0.00
   9   6    -0.00  -0.01   0.00    -0.18   0.08   0.02     0.17  -0.08  -0.02
  10   8    -0.01   0.00  -0.01    -0.01  -0.00  -0.00     0.01   0.00   0.00
  11   1     0.00   0.02   0.00     0.04   0.00  -0.05     0.04   0.00  -0.05
  12   1     0.03  -0.02   0.03     0.00   0.01   0.01     0.00   0.02   0.01
  13   1    -0.01   0.00  -0.00    -0.36  -0.37   0.40    -0.36  -0.37   0.40
  14   1    -0.00   0.00   0.01     0.08  -0.15  -0.01     0.09  -0.16  -0.01
  15   1     0.01  -0.02  -0.01    -0.06  -0.02  -0.00     0.06   0.03   0.00
  16   1    -0.01   0.02  -0.03     0.00   0.01   0.01    -0.00  -0.02  -0.01
  17   1    -0.00  -0.00   0.01     0.64  -0.11  -0.09    -0.63   0.11   0.09
  18   1    -0.00  -0.01  -0.00     0.01  -0.17   0.02    -0.01   0.18  -0.02
                     43                     44                     45
                        a                      a                      a 
 Frequencies --  2966.9663              2969.3284              2974.4042
 Red. masses --     1.8248                 1.7047                 1.6570
 Frc consts  --     0.0000                 0.0000                 0.0000
 IR Inten    --     1.2247                 0.7342                 5.6093
 Raman Activ --     0.0000                 0.0000                 0.0000
 Depolar     --     0.0000                 0.0000                 0.0000
 Atom AN      X      Y      Z        X      Y      Z        X      Y      Z
   1   8     0.00   0.00   0.00    -0.00  -0.00  -0.00     0.00   0.00   0.00
   2   6     0.00  -0.00  -0.00    -0.00   0.00   0.00     0.00   0.00  -0.00
   3   6     0.08  -0.04  -0.14    -0.04   0.03   0.09     0.07  -0.01  -0.08
   4   6    -0.05   0.09   0.00     0.07  -0.11  -0.01     0.08  -0.11  -0.03
   5   8    -0.00   0.00   0.01     0.00  -0.00  -0.01     0.00  -0.00  -0.01
   6   6    -0.00  -0.00  -0.00    -0.00  -0.00  -0.00    -0.00  -0.00  -0.00
   7   8     0.00   0.00   0.00     0.00   0.00   0.00     0.00   0.00   0.00
   8   6    -0.13  -0.10  -0.04    -0.08  -0.07  -0.03    -0.09  -0.05  -0.00
   9   6    -0.01   0.09  -0.01     0.00   0.14  -0.02    -0.02  -0.13   0.03
  10   8     0.00   0.00   0.00     0.00   0.01   0.01    -0.00  -0.01  -0.01
  11   1    -0.33  -0.02   0.43     0.20   0.01  -0.25    -0.24  -0.01   0.31
  12   1     0.04   0.18   0.09    -0.03  -0.14  -0.07     0.01   0.02  -0.00
  13   1     0.03   0.04  -0.04    -0.06  -0.10   0.08    -0.09  -0.12   0.11
  14   1     0.14  -0.36   0.00    -0.20   0.51  -0.00    -0.19   0.50  -0.01
  15   1     0.48   0.19   0.02     0.32   0.13   0.01     0.35   0.14   0.02
  16   1    -0.02   0.15   0.12    -0.02   0.13   0.10    -0.01   0.01   0.01
  17   1    -0.05   0.02   0.00    -0.14   0.05   0.02     0.18  -0.05  -0.02
  18   1     0.06  -0.36   0.04     0.10  -0.55   0.05    -0.10   0.52  -0.05
                     46                     47                     48
                        a                      a                      a 
 Frequencies --  2978.6917              3004.4226              3005.9048
 Red. masses --     1.7677                 1.6261                 1.6361
 Frc consts  --     0.0000                 0.0000                 0.0000
 IR Inten    --     9.8315                 1.3925                 2.6892
 Raman Activ --     0.0000                 0.0000                 0.0000
 Depolar     --     0.0000                 0.0000                 0.0000
 Atom AN      X      Y      Z        X      Y      Z        X      Y      Z
   1   8     0.00   0.00   0.00    -0.00   0.00   0.00     0.00   0.00   0.00
   2   6    -0.00  -0.00  -0.01    -0.00  -0.01   0.00    -0.00  -0.01  -0.00
   3   6     0.09  -0.03  -0.13    -0.05  -0.12  -0.04    -0.06  -0.17  -0.06
   4   6     0.06  -0.06  -0.02     0.00  -0.02   0.00     0.01  -0.03  -0.00
   5   8    -0.00  -0.00  -0.00     0.00  -0.00  -0.00    -0.00   0.00  -0.00
   6   6     0.00   0.00   0.00    -0.00   0.01   0.00     0.00  -0.01  -0.00
   7   8    -0.00  -0.00  -0.00     0.00  -0.00  -0.00    -0.00   0.00   0.00
   8   6     0.14   0.09   0.03    -0.06   0.14   0.12     0.04  -0.10  -0.08
   9   6     0.03   0.08  -0.02    -0.01   0.03   0.00     0.00  -0.02   0.00
  10   8     0.00   0.00   0.00     0.00   0.00   0.00    -0.00   0.00  -0.00
  11   1    -0.33  -0.01   0.44     0.10  -0.01  -0.14     0.12  -0.02  -0.18
  12   1     0.03   0.12   0.05     0.07   0.45   0.27     0.09   0.64   0.38
  13   1    -0.08  -0.10   0.09     0.01   0.01  -0.01     0.00  -0.00  -0.00
  14   1    -0.12   0.31  -0.00    -0.02   0.05   0.00    -0.04   0.10   0.00
  15   1    -0.52  -0.21  -0.02     0.21   0.11   0.03    -0.13  -0.07  -0.02
  16   1     0.02  -0.11  -0.08     0.01  -0.61  -0.44    -0.01   0.43   0.31
  17   1    -0.15   0.04   0.02     0.02   0.00  -0.00     0.00  -0.00   0.00
  18   1     0.07  -0.34   0.03     0.02  -0.09   0.01    -0.01   0.08  -0.01
