$hessian                                                                        
        0.2946530283   0.1027364358   0.3633027368  -0.2726172929  -0.0611685294
       -0.2873949248  -0.0048039241   0.0018620074  -0.0365703554   0.0010890047
        0.0021790861  -0.0012026016  -0.0007906645  -0.0005807619  -0.0012675583
        0.0007802938   0.0002560540   0.0033923786  -0.0004449986  -0.0001728477
       -0.0020424433  -0.0000035899  -0.0005531379  -0.0008851666   0.0034152308
       -0.0053520130  -0.0006931173  -0.0179814827  -0.0397217380  -0.0331741983
       -0.0018992249   0.0024240174  -0.0032682307  -0.0008284103  -0.0019724596
        0.0014052565   0.0004670043  -0.0003556055  -0.0000380044  -0.0003604508
        0.0000812434   0.0000532582  -0.0003304727   0.0001685060  -0.0001768964
        0.0000245856   0.0002488941  -0.0002126799   0.0006436952   0.0004660449
        0.0001870219  -0.0010123315  -0.0005451961  -0.0014144748
        0.1027364358   0.1301532291   0.1240275817  -0.0711008473  -0.0909662264
       -0.0967380678   0.0152849112   0.0053535539   0.0228583070   0.0004086148
       -0.0023757131   0.0020359806   0.0004109754   0.0017906220   0.0015918147
        0.0016316172  -0.0027024471   0.0007369578  -0.0005434651   0.0006864389
       -0.0005085616  -0.0001775123   0.0005218285  -0.0007633545  -0.0029478418
       -0.0077153003   0.0017025237  -0.0448934254  -0.0345195179  -0.0550741654
        0.0005383087  -0.0015004392   0.0017266138   0.0001161040   0.0025023092
        0.0008331758  -0.0000956626  -0.0003443867   0.0000194222   0.0003193950
        0.0001890326  -0.0000809691   0.0000099319  -0.0001928198   0.0000431767
        0.0000558456   0.0002626522  -0.0000980701  -0.0005642344  -0.0006997976
       -0.0008589647  -0.0011891506  -0.0004430181  -0.0014534010
        0.3633027368   0.1240275817   0.5198680427  -0.2849595332  -0.0798379858
       -0.4554813036  -0.0400281150   0.0025938901  -0.0388667406   0.0004097404
        0.0075567960  -0.0031559145  -0.0016127532  -0.0012689198  -0.0029987585
        0.0010654815   0.0009270359   0.0051443623  -0.0006771672  -0.0003431876
       -0.0028878995   0.0002294210  -0.0003291540  -0.0001659751  -0.0042956334
       -0.0034504002   0.0035894557  -0.0294287475  -0.0477969430  -0.0226147828
       -0.0006421821   0.0001101347  -0.0001500412  -0.0004401936  -0.0018704512
        0.0008015973   0.0006632585  -0.0004002222  -0.0004598506  -0.0021224353
        0.0002313645  -0.0005381132  -0.0003778422   0.0002804976   0.0001163697
       -0.0000520246   0.0001525310   0.0000628820  -0.0004558385  -0.0005775060
       -0.0012604335  -0.0005781723  -0.0000050617  -0.0010028966
       -0.2726172929  -0.0711008473  -0.2849595332   0.4207352005   0.0851915354
        0.3142492991  -0.0726534181   0.0207820186  -0.0053728540  -0.0121060208
        0.0173514493  -0.0152232275  -0.0016074732   0.0012225104  -0.0000368689
       -0.0009280518  -0.0012254935  -0.0054530668   0.0007973784   0.0004526379
        0.0035461752   0.0009838230   0.0010197915   0.0012160354  -0.0109336424
       -0.0134452723  -0.0002975692  -0.0548787712  -0.0258678936  -0.0164674726
        0.0054971443  -0.0134257287   0.0104333180   0.0029501112  -0.0001595534
        0.0004529419  -0.0002239847   0.0010855700  -0.0006033341  -0.0043371876
        0.0001436206  -0.0012759920   0.0004559588  -0.0002333952   0.0003866888
        0.0000788157  -0.0000850488   0.0003685737  -0.0011780454  -0.0019271725
       -0.0011516797  -0.0000345437   0.0002212717   0.0001885659
       -0.0611685294  -0.0909662264  -0.0798379858   0.0851915354   0.4843896698
        0.0434645799   0.0162663614  -0.1124623988   0.0328051091   0.0103293419
        0.0064226648   0.0055233902   0.0006932568  -0.0087318461  -0.0066779091
       -0.0067769265   0.0124921292  -0.0005249005   0.0018923511  -0.0025779168
        0.0007804202   0.0017647469  -0.0016346728   0.0045344160  -0.0116222461
       -0.0150084116  -0.0223113927  -0.0383462907  -0.2449266845   0.0030115902
       -0.0011767855   0.0008045368   0.0035916273   0.0053443551  -0.0288553689
        0.0146368263  -0.0019757225   0.0011555015  -0.0001590780  -0.0012776608
       -0.0001581640   0.0004819473  -0.0001962901   0.0009979902  -0.0006181201
       -0.0002489373  -0.0004590810   0.0002241299   0.0024118437   0.0011748312
        0.0020687961  -0.0011044034  -0.0016565526  -0.0009934462
       -0.2873949248  -0.0967380678  -0.4554813036   0.3142492991   0.0434645799
        0.6370790036  -0.0084321324   0.0448210642  -0.0937706254  -0.0090989840
       -0.0005470497  -0.0068171315  -0.0003134503   0.0023943407   0.0026841402
       -0.0019638147  -0.0023602396  -0.0084729736   0.0012625630   0.0007633679
        0.0049966214   0.0000428217  -0.0004490611   0.0018548414  -0.0000185274
       -0.0229283038  -0.0041460599  -0.0122163236   0.0222790320  -0.0666101006
       -0.0023555662   0.0200885014  -0.0185097440   0.0045381017  -0.0084533963
        0.0074223586   0.0007350988   0.0003890894   0.0010505433   0.0016670700
       -0.0000584746   0.0007537915   0.0013058924  -0.0006866464  -0.0013049487
        0.0002197288   0.0000894606  -0.0002722153   0.0002630123   0.0001300167
        0.0010877971  -0.0024898643  -0.0021982135  -0.0015439944
       -0.0048039241   0.0152849112  -0.0400281150  -0.0726534181   0.0162663614
       -0.0084321324   0.4549006469   0.0130867022  -0.0016074666  -0.1724559853
        0.0004996618  -0.0259231125  -0.0061278145  -0.0067976227  -0.0159721173
       -0.0001111769   0.0030965099   0.0015999864   0.0003901022  -0.0004739501
       -0.0005452062   0.0003610994  -0.0006072747  -0.0001092667  -0.0020758193
       -0.0005749376  -0.0001039362   0.0119924912  -0.0058622996  -0.0005737655
       -0.1236433958  -0.0065666984   0.1179645264  -0.0452960359  -0.0268014542
       -0.0166926329  -0.0215665292  -0.0020613504  -0.0032490860  -0.0185235601
        0.0018605376  -0.0061595892  -0.0000585155   0.0002331650   0.0001060073
       -0.0000820693  -0.0002443925   0.0001457722  -0.0001502140  -0.0001772719
       -0.0002663845  -0.0000958817  -0.0001605969  -0.0001534812
        0.0018620074   0.0053535539   0.0025938901   0.0207820186  -0.1124623988
        0.0448210642   0.0130867022   0.4681368307   0.0380354961  -0.0064415378
       -0.0652057271  -0.0017777231  -0.0105447112   0.0016765618  -0.0068576189
        0.0000779304  -0.0014665068   0.0002727430  -0.0001114204   0.0005327585
       -0.0006873558   0.0001415043   0.0002648797  -0.0007032161   0.0013852359
        0.0019806415   0.0006576390   0.0030714769  -0.0443892061   0.0212687790
       -0.0032765486  -0.0375069640   0.0045352707  -0.0272878493  -0.2149347490
       -0.1035076906  -0.0156741144   0.0004519337  -0.0018182303   0.0242965282
       -0.0012980481   0.0041669303  -0.0002668770  -0.0013799809  -0.0007414068
       -0.0004144595  -0.0000893147  -0.0000039577  -0.0003050075  -0.0000223451
       -0.0000291581  -0.0003808783   0.0003580809  -0.0002254549
       -0.0365703554   0.0228583070  -0.0388667406  -0.0053728540   0.0328051091
       -0.0937706254  -0.0016074666   0.0380354961   0.4956981373  -0.0225026633
       -0.0000952541  -0.0632701583  -0.0302647074  -0.0072835936  -0.0232334777
       -0.0016184503   0.0030067800   0.0027647580   0.0005318888  -0.0001905586
       -0.0006092695   0.0001226663  -0.0002705373   0.0000588227   0.0012613275
       -0.0008208163  -0.0007910648  -0.0063249275   0.0068248098   0.0071566003
        0.1116814612   0.0082662133  -0.1887886145  -0.0167309934  -0.1032244729
       -0.1019411737   0.0130457477  -0.0000114960   0.0054492665  -0.0055108642
        0.0009405165  -0.0002957766  -0.0003478824  -0.0006232651  -0.0001754744
       -0.0002019768  -0.0001555379   0.0000568922   0.0003376042   0.0000042939
        0.0003494995   0.0000724455  -0.0000659940   0.0002083990
        0.0010890047   0.0004086148   0.0004097404  -0.0121060208   0.0103293419
       -0.0090989840  -0.1724559853  -0.0064415378  -0.0225026633   0.4560203024
       -0.0116782251  -0.0264763996  -0.0579570389   0.0078041163  -0.0293849257
        0.0006663557  -0.0073230532   0.0110712172   0.0025179954   0.0066112585
        0.0049742119  -0.0009444465  -0.0016001579   0.0001411835   0.0010584927
        0.0008741476   0.0002643165   0.0007110144  -0.0039937832  -0.0002067016
       -0.0241218975  -0.0031309128  -0.0029870365  -0.0090306729  -0.0016094424
       -0.0038441190  -0.1104445793  -0.0724794196   0.0764840907  -0.0736800981
        0.0819549794   0.0006769539  -0.0008385491   0.0004806893  -0.0000319755
        0.0001850753  -0.0002462026   0.0002233721  -0.0002334424  -0.0001539341
        0.0001321918  -0.0004355098   0.0001935207   0.0001555273
        0.0021790861  -0.0023757131   0.0075567960   0.0173514493   0.0064226648
       -0.0005470497   0.0004996618  -0.0652057271  -0.0000952541  -0.0116782251
        0.5022069800  -0.0408781296   0.0072182072  -0.0621578470  -0.0185960643
       -0.0067216492  -0.0128331679  -0.0218521973   0.0049512672  -0.0024710904
       -0.0061997629  -0.0017312195   0.0008301340  -0.0003756033   0.0002620118
       -0.0004200273   0.0004871067  -0.0019982038  -0.0011542770   0.0003100181
       -0.0021682263   0.0009180937  -0.0003740666  -0.0200800808  -0.0034070296
       -0.0067369209  -0.0705421224  -0.1174609260   0.0761198969   0.0810877192
       -0.2404909116   0.0114559418   0.0000716076   0.0002370096  -0.0000846670
        0.0001419832   0.0001091738  -0.0002560004   0.0006358891  -0.0025249332
        0.0001006142   0.0005208448  -0.0002224060  -0.0000346574
       -0.0012026016   0.0020359806  -0.0031559145  -0.0152232275   0.0055233902
       -0.0068171315  -0.0259231125  -0.0017777231  -0.0632701583  -0.0264763996
       -0.0408781296   0.4170443023  -0.0239624640  -0.0225278030  -0.1756122972
        0.0107101876  -0.0201190895  -0.0180351013  -0.0007280069  -0.0030874794
       -0.0004953671   0.0004246148   0.0023670469  -0.0007462644  -0.0007317892
       -0.0000836693   0.0009455396   0.0000790644  -0.0032211001  -0.0008088268
        0.0203001356   0.0003086889   0.0055138764  -0.0149857996  -0.0036826912
       -0.0041263758   0.0754001564   0.0778848722  -0.1141706400   0.0013801295
        0.0073049916  -0.0367376144   0.0005592658  -0.0003946825   0.0002321047
        0.0000338664   0.0001303694  -0.0000238793   0.0001065185   0.0002323633
        0.0004212736   0.0002394619  -0.0000153355  -0.0001575260
       -0.0007906645   0.0004109754  -0.0016127532  -0.0016074732   0.0006932568
       -0.0003134503  -0.0061278145  -0.0105447112  -0.0302647074  -0.0579570389
        0.0072182072  -0.0239624640   0.1570105894  -0.1283016597   0.0109174505
       -0.1010821429   0.0865563321   0.0104409427   0.0145767407  -0.0003120495
        0.0104951313  -0.0059117419   0.0316368078   0.0067530138  -0.0007762041
        0.0012622634   0.0015269350  -0.0000877723  -0.0012955730  -0.0011567639
        0.0029032553   0.0000269491  -0.0004454671  -0.0042803799  -0.0005199550
       -0.0020001633   0.0033534732   0.0060675955   0.0123082610   0.0023255965
        0.0034498832   0.0103911251   0.0013202777  -0.0009588612   0.0006070689
       -0.0035665993   0.0043400612  -0.0024775653   0.0003010756   0.0003817197
       -0.0004963738   0.0003968229  -0.0001112419  -0.0007102199
       -0.0005807619   0.0017906220  -0.0012689198   0.0012225104  -0.0087318461
        0.0023943407  -0.0067976227   0.0016765618  -0.0072835936   0.0078041163
       -0.0621578470  -0.0225278030  -0.1283016597   0.2907650024   0.1535133785
        0.0923477947  -0.1784687239  -0.0359711854   0.0011897363  -0.0145164247
       -0.0533492940   0.0275372949  -0.0270695899  -0.0084925835  -0.0001959618
        0.0007807319  -0.0049260003   0.0010602563   0.0050569437   0.0015995360
        0.0009186577   0.0002553106   0.0003090949  -0.0013625252   0.0006781060
       -0.0005674422   0.0010740308   0.0092487496   0.0082680730  -0.0004164653
       -0.0134945348  -0.0347158292   0.0015995467  -0.0028646647   0.0004636120
        0.0042242949  -0.0033687430   0.0020300538  -0.0008137360  -0.0000233899
        0.0004861183  -0.0005095062   0.0004437358   0.0000384439
       -0.0012675583   0.0015918147  -0.0029987585  -0.0000368689  -0.0066779091
        0.0026841402  -0.0159721173  -0.0068576189  -0.0232334777  -0.0293849257
       -0.0185960643  -0.1756122972   0.0109174505   0.1535133785   0.4097919496
        0.0243112144  -0.0537081627  -0.0865887987   0.0177848624  -0.0596160109
       -0.0751931796  -0.0059406873   0.0035589196   0.0076879433  -0.0000236864
       -0.0014281040  -0.0012789049   0.0007564065   0.0032856581   0.0008479658
        0.0024232753   0.0009132823   0.0018262190  -0.0024920479   0.0007527221
       -0.0015429581   0.0010080337  -0.0052090858  -0.0401527066   0.0001814593
       -0.0134673425  -0.0149777510  -0.0008437399   0.0008871822  -0.0008163426
       -0.0015326674   0.0015806813  -0.0008901236   0.0000067781  -0.0001616954
        0.0001171318   0.0001048188  -0.0003616453   0.0003299489
        0.0007802938   0.0016316172   0.0010654815  -0.0009280518  -0.0067769265
       -0.0019638147  -0.0001111769   0.0000779304  -0.0016184503   0.0006663557
       -0.0067216492   0.0107101876  -0.1010821429   0.0923477947   0.0243112144
        0.3141022423  -0.1180851874   0.1322457305  -0.0955156574  -0.0114295865
       -0.1370924275  -0.1012283495   0.0345111603  -0.0185655434   0.0077022791
       -0.0088606812  -0.0054179906   0.0015286309   0.0049384952   0.0040972979
       -0.0008401182  -0.0012025572  -0.0001450022  -0.0006194664   0.0000807338
       -0.0000817465   0.0002913575   0.0007359055   0.0004264301   0.0005149783
       -0.0006248624  -0.0018102790  -0.0221960952   0.0172096141  -0.0120628544
       -0.0022197030   0.0046681806   0.0005279930   0.0004363159  -0.0010440519
        0.0016895300  -0.0012816923  -0.0014559296   0.0036842438
        0.0002560540  -0.0027024471   0.0009270359  -0.0012254935   0.0124921292
       -0.0023602396   0.0030965099  -0.0014665068   0.0030067800  -0.0073230532
       -0.0128331679  -0.0201190895   0.0865563321  -0.1784687239  -0.0537081627
       -0.1180851874   0.3856888466   0.0823745009  -0.0054586846  -0.0728715935
       -0.0460428523   0.0277595393  -0.1039947177   0.0200715168   0.0013294725
       -0.0041000477   0.0151231288  -0.0015800800  -0.0085835492  -0.0040630408
       -0.0010291504   0.0006315382  -0.0005188376   0.0002475900  -0.0002410888
       -0.0002092042  -0.0002670718   0.0010439640   0.0039540948   0.0005912914
       -0.0014730073  -0.0022756726  -0.0054522003   0.0095342204  -0.0037012849
        0.0193591544  -0.0236468397   0.0070825566   0.0007853968   0.0013246890
       -0.0008514501   0.0004395807  -0.0003336979   0.0013102205
        0.0033923786   0.0007369578   0.0051443623  -0.0054530668  -0.0005249005
       -0.0084729736   0.0015999864   0.0002727430   0.0027647580   0.0110712172
       -0.0218521973  -0.0180351013   0.0104409427  -0.0359711854  -0.0865887987
        0.1322457305   0.0823745009   0.8424780906  -0.1264123701  -0.0613745712
       -0.6504936504  -0.0215261584   0.0310050534  -0.0741386959  -0.0097967424
        0.0147740343  -0.0161165527   0.0006123234   0.0012008707  -0.0005587910
       -0.0009234141  -0.0009473805   0.0003378316   0.0000784806  -0.0001192315
        0.0001947084   0.0007703667  -0.0009091522  -0.0002683940   0.0008070930
       -0.0008455803  -0.0022993230  -0.0047493820   0.0008901700   0.0003895465
        0.0072208574  -0.0108229517   0.0073975208  -0.0003379638   0.0011705583
        0.0003211040   0.0009597210   0.0009422623  -0.0020556416
       -0.0004449986  -0.0005434651  -0.0006771672   0.0007973784   0.0018923511
        0.0012625630   0.0003901022  -0.0001114204   0.0005318888   0.0025179954
        0.0049512672  -0.0007280069   0.0145767407   0.0011897363   0.0177848624
       -0.0955156574  -0.0054586846  -0.1264123701   0.0771475793  -0.0126352639
        0.1500491445   0.0038774390   0.0085859801  -0.0374492579  -0.0038777571
        0.0045619878  -0.0008890899  -0.0006052777  -0.0012363706  -0.0023836000
        0.0001019411   0.0002571767   0.0000658215   0.0002367843  -0.0000459210
        0.0000507389  -0.0001386291  -0.0003161873  -0.0008662054  -0.0000562482
        0.0002950267   0.0008767529   0.0007764438  -0.0004854789   0.0006934104
        0.0001466853  -0.0013296664  -0.0005216160  -0.0004130790  -0.0001536423
        0.0000094320   0.0004825577   0.0005825746  -0.0013973013
       -0.0001728477   0.0006864389  -0.0003431876   0.0004526379  -0.0025779168
        0.0007633679  -0.0004739501   0.0005327585  -0.0001905586   0.0066112585
       -0.0024710904  -0.0030874794  -0.0003120495  -0.0145164247  -0.0596160109
       -0.0114295865  -0.0728715935  -0.0613745712  -0.0126352639   0.0848115560
        0.0972945645   0.0147067642   0.0063891193   0.0240237574   0.0018489678
       -0.0010258946   0.0007883730   0.0001865815   0.0015298677   0.0014225025
        0.0001372627  -0.0001711007   0.0001014647  -0.0000730814   0.0001416027
        0.0000624015  -0.0000011501  -0.0006978639  -0.0015191670  -0.0002200402
       -0.0000422678  -0.0012107954   0.0024421930  -0.0019408646   0.0021547323
       -0.0009629064   0.0022852452   0.0010074520   0.0001249550  -0.0001772596
       -0.0001926352  -0.0002297448   0.0001156884  -0.0000842104
       -0.0020424433  -0.0005085616  -0.0028878995   0.0035461752   0.0007804202
        0.0049966214  -0.0005452062  -0.0006873558  -0.0006092695   0.0049742119
       -0.0061997629  -0.0004953671   0.0104951313  -0.0533492940  -0.0751931796
       -0.1370924275  -0.0460428523  -0.6504936504   0.1500491445   0.0972945645
        0.7824608319  -0.0237110002   0.0046181576  -0.0485680289  -0.0048895852
        0.0043690502   0.0004586999  -0.0007209852  -0.0006823039  -0.0029437460
        0.0001012643   0.0004182616  -0.0003547932  -0.0002394486   0.0002771254
       -0.0000471724  -0.0006146824  -0.0002991578  -0.0004987329  -0.0005826207
       -0.0003181652  -0.0023758219  -0.0014044926   0.0016614877  -0.0023775668
        0.0025703564  -0.0012420358  -0.0000027640  -0.0003895717  -0.0008670080
        0.0002489241   0.0004961800   0.0007774300  -0.0013170852
       -0.0000035899  -0.0001775123   0.0002294210   0.0009838230   0.0017647469
        0.0000428217   0.0003610994   0.0001415043   0.0001226663  -0.0009444465
       -0.0017312195   0.0004246148  -0.0059117419   0.0275372949  -0.0059406873
       -0.1012283495   0.0277595393  -0.0215261584   0.0038774390   0.0147067642
       -0.0237110002   0.4647055423   0.0205485696   0.0086764487  -0.0755984599
       -0.0140939408   0.0417666242   0.0043391362   0.0025780597  -0.0159832479
        0.0001645353   0.0000023216  -0.0000416821  -0.0000566695   0.0000104984
        0.0000271149   0.0000395485   0.0000141069   0.0006119845   0.0001821139
       -0.0001141844   0.0003662018  -0.2435655430  -0.0780393874  -0.0119300272
       -0.0404986009   0.0057998563   0.0041044200  -0.0098717855  -0.0087846325
        0.0248662081   0.0030259488   0.0020776150  -0.0021057228
       -0.0005531379   0.0005218285  -0.0003291540   0.0010197915  -0.0016346728
       -0.0004490611  -0.0006072747   0.0002648797  -0.0002705373  -0.0016001579
        0.0008301340   0.0023670469   0.0316368078  -0.0270695899   0.0035589196
        0.0345111603  -0.1039947177   0.0310050534   0.0085859801   0.0063891193
        0.0046181576   0.0205485696   0.4715796169   0.0383607214  -0.0103028541
       -0.0766309382   0.0301004272   0.0024492990   0.0067855721  -0.0118997374
        0.0001501883  -0.0013688767  -0.0009962751   0.0001792209   0.0001312242
       -0.0003233970   0.0001754386   0.0001326026  -0.0000034059  -0.0000657475
        0.0004347156  -0.0002035163  -0.0841352228  -0.0691352522  -0.0048996149
        0.0059094060  -0.1981577552  -0.1137484723   0.0016054868   0.0023922056
       -0.0015011385  -0.0095069541  -0.0114700958   0.0246139836
       -0.0008851666  -0.0007633545  -0.0001659751   0.0012160354   0.0045344160
        0.0018548414  -0.0001092667  -0.0007032161   0.0000588227   0.0001411835
       -0.0003756033  -0.0007462644   0.0067530138  -0.0084925835   0.0076879433
       -0.0185655434   0.0200715168  -0.0741386959  -0.0374492579   0.0240237574
       -0.0485680289   0.0086764487   0.0383607214   0.4832612705   0.0366753872
        0.0347466663  -0.1489234813  -0.0037767883  -0.0036242722  -0.0387846413
        0.0002279883  -0.0003703967  -0.0004315920   0.0003640441  -0.0001432351
       -0.0001490247   0.0000287542  -0.0001230022  -0.0000060545   0.0000749566
       -0.0000457414  -0.0001223347  -0.0071116375  -0.0029099623  -0.0374787764
        0.0039047639  -0.1131924685  -0.1234805507   0.0068680773   0.0032172865
       -0.0081725675   0.0029670073   0.0057894715  -0.0116948906
        0.0034152308  -0.0029478418  -0.0042956334  -0.0109336424  -0.0116222461
       -0.0000185274  -0.0020758193   0.0013852359   0.0012613275   0.0010584927
        0.0002620118  -0.0007317892  -0.0007762041  -0.0001959618  -0.0000236864
        0.0077022791   0.0013294725  -0.0097967424  -0.0038777571   0.0018489678
       -0.0048895852  -0.0755984599  -0.0103028541   0.0366753872   0.4822947503
       -0.0318291857  -0.0191631728  -0.0888751237  -0.0222064317  -0.0608406003
        0.0000030448  -0.0008843932   0.0006357804  -0.0000118949   0.0002087690
       -0.0001047645  -0.0003414669   0.0012252130   0.0003382409  -0.0002125252
       -0.0001231515   0.0000133979  -0.0113700537  -0.0089559805   0.0256392403
        0.0006280102  -0.0008119906   0.0020281807  -0.2497337411   0.0412619918
        0.0368689047  -0.0512951195   0.0423583753  -0.0035959582
       -0.0053520130  -0.0077153003  -0.0034504002  -0.0134452723  -0.0150084116
       -0.0229283038  -0.0005749376   0.0019806415  -0.0008208163   0.0008741476
       -0.0004200273  -0.0000836693   0.0012622634   0.0007807319  -0.0014281040
       -0.0088606812  -0.0041000477   0.0147740343   0.0045619878  -0.0010258946
        0.0043690502  -0.0140939408  -0.0766309382   0.0347466663  -0.0318291857
        0.4901792653  -0.0256534589  -0.0176926927  -0.0743089162  -0.0183981632
       -0.0002575774  -0.0002515995   0.0003601592  -0.0003653209   0.0001092684
       -0.0001158429   0.0005887238  -0.0021738651   0.0001747091  -0.0003488099
       -0.0005482336   0.0003950266  -0.0055112685  -0.0023096390   0.0103430595
        0.0063864183   0.0030416262  -0.0169880753   0.0384478469  -0.0501945527
       -0.0056898356   0.0462103122  -0.2614041076   0.0303939643
       -0.0006931173   0.0017025237   0.0035894557  -0.0002975692  -0.0223113927
       -0.0041460599  -0.0001039362   0.0006576390  -0.0007910648   0.0002643165
        0.0004871067   0.0009455396   0.0015269350  -0.0049260003  -0.0012789049
       -0.0054179906   0.0151231288  -0.0161165527  -0.0008890899   0.0007883730
        0.0004586999   0.0417666242   0.0301004272  -0.1489234813  -0.0191631728
       -0.0256534589   0.4037597380  -0.0642686609  -0.0223072278  -0.1331138205
        0.0001492035   0.0002772998  -0.0000992088  -0.0000052974  -0.0001377156
        0.0001924058   0.0004765448  -0.0003626344   0.0001745642  -0.0000006492
        0.0001054724  -0.0000081376   0.0046914467   0.0007369516  -0.0039808366
        0.0071731846   0.0029185474  -0.0202761345   0.0375075235  -0.0057680543
       -0.0423759542  -0.0027162951   0.0285690142  -0.0380102473
       -0.0179814827  -0.0448934254  -0.0294287475  -0.0548787712  -0.0383462907
       -0.0122163236   0.0119924912   0.0030714769  -0.0063249275   0.0007110144
       -0.0019982038   0.0000790644  -0.0000877723   0.0010602563   0.0007564065
        0.0015286309  -0.0015800800   0.0006123234  -0.0006052777   0.0001865815
       -0.0007209852   0.0043391362   0.0024492990  -0.0037767883  -0.0888751237
       -0.0176926927  -0.0642686609   0.1673351241   0.1171059604   0.1475527515
       -0.0007029916   0.0026406338  -0.0017350411   0.0002776340   0.0005702588
       -0.0007581000   0.0001518382  -0.0003210689   0.0001674053   0.0005879785
       -0.0002359408   0.0003590366   0.0009210809   0.0008172133   0.0010132646
       -0.0006296109   0.0001733221   0.0008914866  -0.0249730255  -0.0169101026
       -0.0283797933   0.0008891271  -0.0060971972  -0.0038223714
       -0.0397217380  -0.0345195179  -0.0477969430  -0.0258678936  -0.2449266845
        0.0222790320  -0.0058622996  -0.0443892061   0.0068248098  -0.0039937832
       -0.0011542770  -0.0032211001  -0.0012955730   0.0050569437   0.0032856581
        0.0049384952  -0.0085835492   0.0012008707  -0.0012363706   0.0015298677
       -0.0006823039   0.0025780597   0.0067855721  -0.0036242722  -0.0222064317
       -0.0743089162  -0.0223072278   0.1171059604   0.4177480647   0.0695766720
        0.0004363596  -0.0020648211   0.0001844649   0.0011133135  -0.0054230974
        0.0045051816   0.0010139260   0.0002829700  -0.0002573561   0.0004548487
        0.0006522477  -0.0001425959   0.0003786906   0.0004606708   0.0006850436
       -0.0003748889   0.0008513917   0.0001954131  -0.0058266589   0.0033711243
       -0.0025572635  -0.0216340162  -0.0213687835  -0.0281480834
       -0.0331741983  -0.0550741654  -0.0226147828  -0.0164674726   0.0030115902
       -0.0666101006  -0.0005737655   0.0212687790   0.0071566003  -0.0002067016
        0.0003100181  -0.0008088268  -0.0011567639   0.0015995360   0.0008479658
        0.0040972979  -0.0040630408  -0.0005587910  -0.0023836000   0.0014225025
       -0.0029437460  -0.0159832479  -0.0118997374  -0.0387846413  -0.0608406003
       -0.0183981632  -0.1331138205   0.1475527515   0.0695766720   0.2731064066
       -0.0000932571  -0.0009314518   0.0004417255  -0.0014665278   0.0039571661
       -0.0026754608  -0.0002703628   0.0000899385  -0.0000327332  -0.0002975195
       -0.0003657452  -0.0000440948  -0.0016516092  -0.0008147465   0.0035754217
        0.0006251654   0.0016949910  -0.0053667658  -0.0138424091  -0.0013935580
       -0.0059611621  -0.0038671792  -0.0099905852  -0.0056131942
       -0.0018992249   0.0005383087  -0.0006421821   0.0054971443  -0.0011767855
       -0.0023555662  -0.1236433958  -0.0032765486   0.1116814612  -0.0241218975
       -0.0021682263   0.0203001356   0.0029032553   0.0009186577   0.0024232753
       -0.0008401182  -0.0010291504  -0.0009234141   0.0001019411   0.0001372627
        0.0001012643   0.0001645353   0.0001501883   0.0002279883   0.0000030448
       -0.0002575774   0.0001492035  -0.0007029916   0.0004363596  -0.0000932571
        0.1452214582   0.0042003952  -0.1298655703   0.0023821665   0.0008447385
        0.0004276566  -0.0048029222   0.0005423039  -0.0014854551  -0.0012344694
       -0.0003163783  -0.0000438102   0.0009132171   0.0001647793   0.0000933320
        0.0000376102   0.0001512793   0.0000143268   0.0000194818   0.0000624944
        0.0000398923   0.0000011652   0.0000778986  -0.0000492807
        0.0024240174  -0.0015004392   0.0001101347  -0.0134257287   0.0008045368
        0.0200885014  -0.0065666984  -0.0375069640   0.0082662133  -0.0031309128
        0.0009180937   0.0003086889   0.0000269491   0.0002553106   0.0009132823
       -0.0012025572   0.0006315382  -0.0009473805   0.0002571767  -0.0001711007
        0.0004182616   0.0000023216  -0.0013688767  -0.0003703967  -0.0008843932
       -0.0002515995   0.0002772998   0.0026406338  -0.0020648211  -0.0009314518
        0.0042003952   0.0446502731  -0.0029658667   0.0157771423  -0.0015727379
       -0.0239146097  -0.0010640779  -0.0001048117  -0.0000946221   0.0001846249
       -0.0000710357   0.0002370877   0.0006176349  -0.0024952965  -0.0011788220
        0.0000967974  -0.0000380660  -0.0000001766   0.0000442797  -0.0001163808
       -0.0001282962   0.0000023951   0.0000023776  -0.0000878476
       -0.0032682307   0.0017266138  -0.0001500412   0.0104333180   0.0035916273
       -0.0185097440   0.1179645264   0.0045352707  -0.1887886145  -0.0029870365
       -0.0003740666   0.0055138764  -0.0004454671   0.0003090949   0.0018262190
       -0.0001450022  -0.0005188376   0.0003378316   0.0000658215   0.0001014647
       -0.0003547932  -0.0000416821  -0.0009962751  -0.0004315920   0.0006357804
        0.0003601592  -0.0000992088  -0.0017350411   0.0001844649   0.0004417255
       -0.1298655703  -0.0029658667   0.2166585014   0.0111290302  -0.0042352121
       -0.0163257543  -0.0013255534  -0.0004966006  -0.0001036086  -0.0001386463
        0.0000463671  -0.0002864192  -0.0000875193  -0.0010058298   0.0004237350
       -0.0001638092  -0.0001988998  -0.0000784100  -0.0000275063  -0.0000249227
        0.0000093797   0.0000025882  -0.0000385516  -0.0000830827
       -0.0008284103   0.0001161040  -0.0004401936   0.0029501112   0.0053443551
        0.0045381017  -0.0452960359  -0.0272878493  -0.0167309934  -0.0090306729
       -0.0200800808  -0.0149857996  -0.0042803799  -0.0013625252  -0.0024920479
       -0.0006194664   0.0002475900   0.0000784806   0.0002367843  -0.0000730814
       -0.0002394486  -0.0000566695   0.0001792209   0.0003640441  -0.0000118949
       -0.0003653209  -0.0000052974   0.0002776340   0.0011133135  -0.0014665278
        0.0023821665   0.0157771423   0.0111290302   0.0560404853   0.0282433086
        0.0220721410  -0.0019427777  -0.0003167887   0.0000634044  -0.0000313998
       -0.0017645552  -0.0018446263   0.0001336327   0.0000137183   0.0000146602
        0.0000971671   0.0001246282  -0.0000137547  -0.0000262259   0.0000799518
       -0.0000417409   0.0000059522   0.0000108690   0.0000005679
       -0.0019724596   0.0025023092  -0.0018704512  -0.0001595534  -0.0288553689