18
 energy: -33.204030973297 gnorm: 0.000063379732 xtb: 6.7.1 (edcfbbe)
O           -1.54058390652937       -0.34035838117632       -2.88592467940350
C           -0.84218456782585       -0.07148527968451       -1.94242154427105
C           -0.38054285706667       -1.16498654603001       -0.98654743326729
C            1.07720093828113       -1.10053235990233       -0.52093737353852
O            1.27593348440702       -0.68775684807181        0.82702598100685
C            0.71538519683777        0.35226043387687        1.44546562031764
O            0.94971512238996        0.50031320487319        2.61739561811338
C           -0.19458945552545        1.32886482389326        0.71022390274752
C            0.24891391907781        1.75926024408514       -0.69121020848533
O           -0.49562647113797        1.20469635408628       -1.77051514900898
H           -1.04704586699231       -1.19917782727340       -0.12079989033487
H           -0.54080972577233       -2.09644360116960       -1.53352197665582
H            1.68624144283640       -0.49203953100614       -1.19827150552494
H            1.49817767413579       -2.10996394474766       -0.52220743904600
H           -1.20953991094383        0.92472736086322        0.67207789237608
H           -0.23855402168901        2.20726181205888        1.35750252597807
H            1.32041204031390        1.58790029086791       -0.84119170091734
H            0.07073733014976        2.83187566415629       -0.80914584863687
