 Entering Gaussian System
 *********************************************
 Gaussian 98:
 frequency output generated by the xtb code
 *********************************************
                         Standard orientation:
 --------------------------------------------------------------------
  Center     Atomic     Atomic              Coordinates (Angstroms)
  Number     Number      Type              X           Y           Z
 --------------------------------------------------------------------
    1          8             0       -1.640023    2.026195    0.544846
    2          6             0       -0.825326    1.191851    0.788493
    3          6             0       -0.521085    0.252563    1.939106
    4          6             0        0.633533   -0.186631    1.029826
    5          8             0        0.210955    0.764627    0.027805
    6          1             0       -0.242756    0.747056    2.866175
    7          1             0       -1.290546   -0.490141    2.133407
    8          1             0        0.583695   -1.204589    0.642914
    9          1             0        1.639664    0.042419    1.381521
 --------------------------------------------------------------------
     1 basis functions        1 primitive gaussians
     1 alpha electrons        1 beta electrons

 Harmonic frequencies (cm**-1), IR intensities (km*mol⁻¹),
 Raman scattering activities (A**4/amu), Raman depolarization ratios,
 reduced masses (AMU), force constants (mDyne/A) and normal coordinates:
                      1                      2                      3
                        a                      a                      a 
 Frequencies --   189.7832               497.0759               497.7308
 Red. masses --     9.6945                12.0944                 9.3633
 Frc consts  --     0.0000                 0.0000                 0.0000
 IR Inten    --     0.1083                11.5443                 9.8945
 Raman Activ --     0.0000                 0.0000                 0.0000
 Depolar     --     0.0000                 0.0000                 0.0000
 Atom AN      X      Y      Z        X      Y      Z        X      Y      Z
   1   8     0.23   0.27   0.16    -0.29  -0.22   0.44    -0.05  -0.13  -0.38
   2   6    -0.08  -0.09  -0.05     0.34   0.25  -0.14     0.27   0.40   0.39
   3   6    -0.13  -0.15  -0.09    -0.13   0.27  -0.19     0.12  -0.08   0.14
   4   6     0.24   0.29   0.17    -0.05  -0.05   0.12     0.00  -0.00  -0.08
   5   8    -0.29  -0.35  -0.21     0.24  -0.20  -0.25    -0.27  -0.06   0.04
   6   1    -0.20  -0.10   0.05    -0.14  -0.05   0.04    -0.02  -0.39   0.24
   7   1     0.00  -0.13  -0.19    -0.18   0.17  -0.26    -0.09   0.00  -0.32
   8   1     0.32   0.03   0.15    -0.02  -0.04   0.10     0.03  -0.00  -0.02
   9   1     0.00   0.34   0.08    -0.03  -0.02   0.08     0.01   0.04  -0.07
                      4                      5                      6
                        a                      a                      a 
 Frequencies --   739.4513               787.2003               941.1850
 Red. masses --    13.2579                 2.7919                 9.7413
 Frc consts  --     0.0000                 0.0000                 0.0000
 IR Inten    --     0.5206                15.0298                 9.2739
 Raman Activ --     0.0000                 0.0000                 0.0000
 Depolar     --     0.0000                 0.0000                 0.0000
 Atom AN      X      Y      Z        X      Y      Z        X      Y      Z
   1   8    -0.43   0.40  -0.06     0.04   0.05   0.03    -0.15   0.13  -0.01
   2   6    -0.25   0.28  -0.11    -0.16  -0.19  -0.11     0.03   0.13  -0.26
   3   6     0.22  -0.07  -0.21     0.14   0.16   0.10     0.15  -0.32   0.33
   4   6     0.30  -0.31   0.10     0.09   0.11   0.07    -0.34   0.18   0.18
   5   8     0.10  -0.24   0.26     0.02   0.02   0.01     0.24  -0.01  -0.34
   6   1     0.09  -0.06  -0.05    -0.40  -0.06   0.21     0.19  -0.25   0.13
   7   1     0.10  -0.05  -0.04     0.17  -0.21  -0.36     0.20  -0.24   0.14
   8   1     0.09  -0.09   0.03    -0.45   0.01   0.10    -0.10   0.03   0.12
   9   1     0.09  -0.09   0.03     0.20  -0.31  -0.28    -0.11   0.02   0.11
                      7                      8                      9
                        a                      a                      a 
 Frequencies --   983.0533              1014.2652              1057.4088
 Red. masses --     5.8626                13.2192                 9.0618
 Frc consts  --     0.0000                 0.0000                 0.0000
 IR Inten    --    20.9217                74.8003                35.2070
 Raman Activ --     0.0000                 0.0000                 0.0000
 Depolar     --     0.0000                 0.0000                 0.0000
 Atom AN      X      Y      Z        X      Y      Z        X      Y      Z
   1   8     0.05   0.07   0.04    -0.06   0.04   0.02    -0.11   0.09   0.01
   2   6    -0.29  -0.34  -0.21    -0.08   0.02   0.08     0.12   0.08  -0.29
   3   6     0.21   0.25   0.15    -0.13   0.06   0.10    -0.30  -0.08   0.56
   4   6    -0.09  -0.11  -0.06    -0.14   0.41  -0.48     0.33  -0.22  -0.10
   5   8     0.09   0.10   0.06     0.37  -0.49   0.30    -0.00   0.06  -0.10
   6   1     0.21  -0.39   0.23    -0.00  -0.02   0.04    -0.18   0.06   0.14
   7   1    -0.27   0.31  -0.27    -0.00  -0.02   0.04    -0.17   0.07   0.15
   8   1     0.18  -0.02  -0.07    -0.00   0.10  -0.14     0.15   0.02  -0.25
   9   1    -0.10   0.11   0.12    -0.02   0.08  -0.15     0.15   0.01  -0.25
                     10                     11                     12
                        a                      a                      a 
 Frequencies --  1091.8744              1096.7320              1122.5662
 Red. masses --    12.2298                 3.1791                 3.3842
 Frc consts  --     0.0000                 0.0000                 0.0000
 IR Inten    --   263.0220                 4.7445                 0.0770
 Raman Activ --     0.0000                 0.0000                 0.0000
 Depolar     --     0.0000                 0.0000                 0.0000
 Atom AN      X      Y      Z        X      Y      Z        X      Y      Z
   1   8     0.06  -0.11   0.09    -0.00  -0.01   0.00    -0.01  -0.01  -0.01
   2   6     0.34   0.05  -0.56     0.02   0.01  -0.02     0.02   0.03   0.02
   3   6     0.05   0.03  -0.11     0.02   0.03   0.01     0.18   0.21   0.13
   4   6    -0.14   0.08   0.10    -0.21  -0.24  -0.15    -0.20  -0.24  -0.14
   5   8    -0.35  -0.01   0.49     0.12   0.16   0.11     0.01   0.00  -0.00
   6   1     0.15  -0.10  -0.02    -0.11   0.06   0.01    -0.40   0.22   0.08
   7   1     0.14  -0.11  -0.03     0.09  -0.09  -0.02     0.34  -0.28  -0.12
   8   1     0.00   0.09  -0.17     0.16  -0.29   0.53     0.29   0.03  -0.31
   9   1     0.00   0.07  -0.13    -0.03   0.45  -0.45    -0.22   0.06   0.36
                     13                     14                     15
                        a                      a                      a 
 Frequencies --  1185.8650              1243.7212              1407.2584
 Red. masses --     6.2588                 5.5173                 2.1882
 Frc consts  --     0.0000                 0.0000                 0.0000
 IR Inten    --    23.5401                27.5631                19.1298
 Raman Activ --     0.0000                 0.0000                 0.0000
 Depolar     --     0.0000                 0.0000                 0.0000
 Atom AN      X      Y      Z        X      Y      Z        X      Y      Z
   1   8     0.06  -0.06   0.02     0.00   0.01  -0.02    -0.01   0.00   0.00
   2   6    -0.05  -0.03   0.12    -0.10  -0.02   0.19    -0.01   0.00   0.01
   3   6    -0.45   0.43  -0.09     0.08   0.01  -0.13    -0.16  -0.03   0.28
   4   6     0.16  -0.13  -0.00    -0.24  -0.07   0.46    -0.01   0.02  -0.02
   5   8     0.04   0.03  -0.10     0.16  -0.05  -0.14     0.00   0.01  -0.02
   6   1     0.31  -0.39   0.12     0.03   0.04  -0.06     0.46   0.35  -0.30
   7   1     0.35  -0.33   0.15     0.00   0.01  -0.08     0.00  -0.20  -0.62
   8   1     0.07  -0.03  -0.02     0.12   0.20  -0.49     0.12  -0.03   0.06
   9   1     0.06  -0.04  -0.03     0.11   0.19  -0.50     0.03  -0.14  -0.00
                     16                     17                     18
                        a                      a                      a 
 Frequencies --  1455.7398              1859.0931              2987.2275
 Red. masses --     2.0456                13.3483                 2.0350
 Frc consts  --     0.0000                 0.0000                 0.0000
 IR Inten    --     0.3553               824.7722                10.6064
 Raman Activ --     0.0000                 0.0000                 0.0000
 Depolar     --     0.0000                 0.0000                 0.0000
 Atom AN      X      Y      Z        X      Y      Z        X      Y      Z
   1   8     0.02  -0.02   0.00     0.39  -0.41   0.12    -0.00  -0.00  -0.00
   2   6     0.00   0.01  -0.01    -0.54   0.57  -0.19     0.00   0.00   0.00
   3   6     0.04  -0.00  -0.06     0.03  -0.05   0.04    -0.03  -0.03  -0.02
   4   6    -0.23   0.18   0.02     0.04  -0.03   0.00     0.18   0.21   0.12
   5   8    -0.03   0.03  -0.00     0.03  -0.02  -0.00     0.00   0.00   0.00
   6   1    -0.10  -0.05   0.05    -0.01   0.01   0.00     0.03   0.05   0.10
   7   1    -0.01   0.05   0.12    -0.02   0.01   0.00     0.08   0.08  -0.02
   8   1     0.64  -0.08   0.16    -0.00  -0.01  -0.01    -0.02  -0.62  -0.24
   9   1     0.18  -0.62  -0.16     0.01   0.01   0.00    -0.61  -0.13  -0.21
                     19                     20                     21
                        a                      a                      a 
 Frequencies --  2994.6101              3032.6961              3033.5431
 Red. masses --     1.4697                 2.0398                 1.5076
 Frc consts  --     0.0000                 0.0000                 0.0000
 IR Inten    --    14.3236                 3.1429                 2.1250
 Raman Activ --     0.0000                 0.0000                 0.0000
 Depolar     --     0.0000                 0.0000                 0.0000
 Atom AN      X      Y      Z        X      Y      Z        X      Y      Z
   1   8     0.00  -0.00   0.00    -0.00   0.00  -0.00    -0.00   0.00  -0.00
   2   6     0.00  -0.00  -0.00     0.00   0.00   0.00    -0.00  -0.00   0.00
   3   6     0.00   0.00  -0.00     0.17   0.21   0.13    -0.09  -0.05   0.18
   4   6    -0.16   0.13   0.01     0.03   0.04   0.02    -0.00  -0.00  -0.00
   5   8    -0.01   0.01  -0.01    -0.00  -0.00  -0.00     0.00  -0.00  -0.00
   6   1    -0.00   0.00  -0.00    -0.17  -0.31  -0.61    -0.19  -0.31  -0.54
   7   1    -0.00  -0.00  -0.00    -0.44  -0.42   0.13     0.51   0.50  -0.10
   8   1    -0.06  -0.64  -0.25    -0.00  -0.10  -0.04     0.00   0.01   0.00
   9   1     0.63   0.17   0.23    -0.11  -0.02  -0.04     0.01   0.00   0.00
