$hessian                                                                        
        0.2946529888   0.1027364294   0.3633027221  -0.2726172613  -0.0611685247
       -0.2873949125  -0.0048039196   0.0018620070  -0.0365703537   0.0010890049
        0.0021790854  -0.0012026012  -0.0007906644  -0.0005807617  -0.0012675580
        0.0007802939   0.0002560539   0.0033923784  -0.0004449985  -0.0001728477
       -0.0020424432  -0.0000035899  -0.0005531379  -0.0008851666   0.0034152310
       -0.0053520129  -0.0006931173  -0.0179814801  -0.0397217359  -0.0331741981
       -0.0018992249   0.0024240177  -0.0032682309  -0.0008284103  -0.0019724594
        0.0014052564   0.0004670042  -0.0003556055  -0.0000380043  -0.0003604506
        0.0000812434   0.0000532583  -0.0003304727   0.0001685060  -0.0001768964
        0.0000245856   0.0002488941  -0.0002126799   0.0006436952   0.0004660449
        0.0001870219  -0.0010123314  -0.0005451961  -0.0014144748
        0.1027364294   0.1301532292   0.1240275864  -0.0711008418  -0.0909662267
       -0.0967380712   0.0152849096   0.0053535539   0.0228583078   0.0004086147
       -0.0023757130   0.0020359806   0.0004109754   0.0017906220   0.0015918147
        0.0016316172  -0.0027024471   0.0007369578  -0.0005434651   0.0006864390
       -0.0005085616  -0.0001775123   0.0005218284  -0.0007633545  -0.0029478420
       -0.0077153001   0.0017025236  -0.0448934227  -0.0345195180  -0.0550741674
        0.0005383087  -0.0015004393   0.0017266141   0.0001161040   0.0025023092
        0.0008331757  -0.0000956626  -0.0003443867   0.0000194222   0.0003193949
        0.0001890326  -0.0000809691   0.0000099319  -0.0001928198   0.0000431766
        0.0000558456   0.0002626523  -0.0000980701  -0.0005642344  -0.0006997976
       -0.0008589648  -0.0011891505  -0.0004430181  -0.0014534009
        0.3633027221   0.1240275864   0.5198680774  -0.2849595210  -0.0798379887
       -0.4554813306  -0.0400281131   0.0025938900  -0.0388667444   0.0004097408
        0.0075567958  -0.0031559146  -0.0016127534  -0.0012689199  -0.0029987586
        0.0010654819   0.0009270360   0.0051443625  -0.0006771675  -0.0003431877
       -0.0028878995   0.0002294210  -0.0003291540  -0.0001659752  -0.0042956336
       -0.0034504004   0.0035894556  -0.0294287471  -0.0477969447  -0.0226147857
       -0.0006421822   0.0001101353  -0.0001500417  -0.0004401935  -0.0018704513
        0.0008015974   0.0006632585  -0.0004002222  -0.0004598507  -0.0021224352
        0.0002313646  -0.0005381132  -0.0003778422   0.0002804977   0.0001163697
       -0.0000520246   0.0001525310   0.0000628820  -0.0004558385  -0.0005775060
       -0.0012604336  -0.0005781723  -0.0000050617  -0.0010028966
       -0.2726172613  -0.0711008418  -0.2849595210   0.4207351687   0.0851915366
        0.3142492853  -0.0726534175   0.0207820162  -0.0053728520  -0.0121060206
        0.0173514499  -0.0152232283  -0.0016074733   0.0012225103  -0.0000368691
       -0.0009280521  -0.0012254934  -0.0054530665   0.0007973787   0.0004526380
        0.0035461750   0.0009838230   0.0010197915   0.0012160355  -0.0109336427
       -0.0134452709  -0.0002975693  -0.0548787703  -0.0258678993  -0.0164674727
        0.0054971440  -0.0134257291   0.0104333184   0.0029501111  -0.0001595542
        0.0004529423  -0.0002239848   0.0010855702  -0.0006033343  -0.0043371877
        0.0001436208  -0.0012759920   0.0004559587  -0.0002333953   0.0003866888
        0.0000788156  -0.0000850489   0.0003685737  -0.0011780456  -0.0019271725
       -0.0011516798  -0.0000345437   0.0002212720   0.0001885662
       -0.0611685247  -0.0909662267  -0.0798379887   0.0851915366   0.4843896756
        0.0434645854   0.0162663591  -0.1124623977   0.0328051087   0.0103293427
        0.0064226643   0.0055233908   0.0006932566  -0.0087318461  -0.0066779092
       -0.0067769265   0.0124921289  -0.0005249004   0.0018923511  -0.0025779166
        0.0007804200   0.0017647468  -0.0016346728   0.0045344159  -0.0116222446
       -0.0150084117  -0.0223113931  -0.0383462956  -0.2449266916   0.0030115881
       -0.0011767857   0.0008045380   0.0035916262   0.0053443544  -0.0288553687
        0.0146368269  -0.0019757225   0.0011555015  -0.0001590780  -0.0012776607
       -0.0001581640   0.0004819474  -0.0001962901   0.0009979902  -0.0006181200
       -0.0002489373  -0.0004590810   0.0002241299   0.0024118438   0.0011748311
        0.0020687963  -0.0011044034  -0.0016565527  -0.0009934463
       -0.2873949125  -0.0967380712  -0.4554813306   0.3142492853   0.0434645854
        0.6370790320  -0.0084321303   0.0448210643  -0.0937706261  -0.0090989849
       -0.0005470494  -0.0068171320  -0.0003134501   0.0023943409   0.0026841405
       -0.0019638151  -0.0023602398  -0.0084729740   0.0012625632   0.0007633681
        0.0049966216   0.0000428218  -0.0004490610   0.0018548417  -0.0000185275
       -0.0229283040  -0.0041460600  -0.0122163235   0.0222790302  -0.0666101014
       -0.0023555658   0.0200885003  -0.0185097439   0.0045381013  -0.0084533960
        0.0074223587   0.0007350989   0.0003890895   0.0010505434   0.0016670699
       -0.0000584746   0.0007537915   0.0013058924  -0.0006866464  -0.0013049487
        0.0002197288   0.0000894607  -0.0002722153   0.0002630123   0.0001300165
        0.0010877970  -0.0024898642  -0.0021982136  -0.0015439946
       -0.0048039196   0.0152849096  -0.0400281131  -0.0726534175   0.0162663591
       -0.0084321303   0.4549006437   0.0130867044  -0.0016074728  -0.1724559846
        0.0004996634  -0.0259231115  -0.0061278152  -0.0067976229  -0.0159721174
       -0.0001111768   0.0030965099   0.0015999865   0.0003901022  -0.0004739500
       -0.0005452062   0.0003610994  -0.0006072748  -0.0001092668  -0.0020758192
       -0.0005749376  -0.0001039363   0.0119924914  -0.0058623000  -0.0005737650
       -0.1236433970  -0.0065666946   0.1179645283  -0.0452960368  -0.0268014577
       -0.0166926343  -0.0215665295  -0.0020613503  -0.0032490857  -0.0185235601
        0.0018605377  -0.0061595890  -0.0000585155   0.0002331651   0.0001060072
       -0.0000820693  -0.0002443925   0.0001457721  -0.0001502139  -0.0001772719
       -0.0002663845  -0.0000958816  -0.0001605969  -0.0001534813
        0.0018620070   0.0053535539   0.0025938900   0.0207820162  -0.1124623977
        0.0448210643   0.0130867044   0.4681368332   0.0380354988  -0.0064415365
       -0.0652057268  -0.0017777230  -0.0105447116   0.0016765617  -0.0068576187
        0.0000779304  -0.0014665068   0.0002727431  -0.0001114204   0.0005327585
       -0.0006873558   0.0001415044   0.0002648795  -0.0007032162   0.0013852358
        0.0019806415   0.0006576390   0.0030714755  -0.0443892064   0.0212687797
       -0.0032765450  -0.0375069636   0.0045352657  -0.0272878527  -0.2149347526
       -0.1035076894  -0.0156741137   0.0004519340  -0.0018182300   0.0242965285
       -0.0012980484   0.0041669301  -0.0002668771  -0.0013799812  -0.0007414069
       -0.0004144595  -0.0000893147  -0.0000039577  -0.0003050075  -0.0000223451
       -0.0000291581  -0.0003808783   0.0003580809  -0.0002254549
       -0.0365703537   0.0228583078  -0.0388667444  -0.0053728520   0.0328051087
       -0.0937706261  -0.0016074728   0.0380354988   0.4956981402  -0.0225026621
       -0.0000952539  -0.0632701580  -0.0302647074  -0.0072835932  -0.0232334765
       -0.0016184500   0.0030067801   0.0027647581   0.0005318888  -0.0001905587
       -0.0006092695   0.0001226664  -0.0002705373   0.0000588228   0.0012613275
       -0.0008208163  -0.0007910647  -0.0063249272   0.0068248100   0.0071565996
        0.1116814633   0.0082662082  -0.1887886164  -0.0167309947  -0.1032244714
       -0.1019411713   0.0130457481  -0.0000114961   0.0054492663  -0.0055108644
        0.0009405166  -0.0002957766  -0.0003478824  -0.0006232653  -0.0001754744
       -0.0002019768  -0.0001555380   0.0000568922   0.0003376042   0.0000042940
        0.0003494996   0.0000724454  -0.0000659940   0.0002083991
        0.0010890049   0.0004086147   0.0004097408  -0.0121060206   0.0103293427
       -0.0090989849  -0.1724559846  -0.0064415365  -0.0225026621   0.4560203000
       -0.0116782265  -0.0264763982  -0.0579570404   0.0078041156  -0.0293849283
        0.0006663563  -0.0073230538   0.0110712166   0.0025179956   0.0066112585
        0.0049742117  -0.0009444464  -0.0016001579   0.0001411835   0.0010584926
        0.0008741475   0.0002643164   0.0007110143  -0.0039937835  -0.0002067015
       -0.0241218974  -0.0031309123  -0.0029870365  -0.0090306732  -0.0016094424
       -0.0038441191  -0.1104445791  -0.0724794170   0.0764840925  -0.0736800959
        0.0819549776   0.0006769534  -0.0008385492   0.0004806893  -0.0000319755
        0.0001850752  -0.0002462025   0.0002233721  -0.0002334424  -0.0001539341
        0.0001321918  -0.0004355097   0.0001935207   0.0001555272
        0.0021790854  -0.0023757130   0.0075567958   0.0173514499   0.0064226643
       -0.0005470494   0.0004996634  -0.0652057268  -0.0000952539  -0.0116782265
        0.5022069784  -0.0408781291   0.0072182064  -0.0621578472  -0.0185960675
       -0.0067216496  -0.0128331689  -0.0218521969   0.0049512670  -0.0024710904
       -0.0061997630  -0.0017312195   0.0008301340  -0.0003756033   0.0002620119
       -0.0004200269   0.0004871068  -0.0019982038  -0.0011542771   0.0003100181
       -0.0021682254   0.0009180938  -0.0003740665  -0.0200800810  -0.0034070293
       -0.0067369209  -0.0705421199  -0.1174609215   0.0761198963   0.0810877174
       -0.2404909140   0.0114559440   0.0000716076   0.0002370096  -0.0000846670
        0.0001419832   0.0001091738  -0.0002560004   0.0006358889  -0.0025249328
        0.0001006143   0.0005208447  -0.0002224059  -0.0000346574
       -0.0012026012   0.0020359806  -0.0031559146  -0.0152232283   0.0055233908
       -0.0068171320  -0.0259231115  -0.0017777230  -0.0632701580  -0.0264763982
       -0.0408781291   0.4170443055  -0.0239624667  -0.0225278062  -0.1756122968
        0.0107101870  -0.0201190890  -0.0180351011  -0.0007280071  -0.0030874796
       -0.0004953672   0.0004246148   0.0023670469  -0.0007462644  -0.0007317891
       -0.0000836692   0.0009455396   0.0000790643  -0.0032211001  -0.0008088269
        0.0203001358   0.0003086887   0.0055138765  -0.0149857993  -0.0036826909
       -0.0041263756   0.0754001581   0.0778848715  -0.1141706434   0.0013801289
        0.0073049939  -0.0367376145   0.0005592658  -0.0003946825   0.0002321047
        0.0000338664   0.0001303695  -0.0000238793   0.0001065184   0.0002323632
        0.0004212736   0.0002394619  -0.0000153354  -0.0001575261
       -0.0007906644   0.0004109754  -0.0016127534  -0.0016074733   0.0006932566
       -0.0003134501  -0.0061278152  -0.0105447116  -0.0302647074  -0.0579570404
        0.0072182064  -0.0239624667   0.1570105915  -0.1283016575   0.0109174569
       -0.1010821431   0.0865563324   0.0104409434   0.0145767416  -0.0003120518
        0.0104951277  -0.0059117429   0.0316368086   0.0067530139  -0.0007762043
        0.0012622635   0.0015269351  -0.0000877723  -0.0012955729  -0.0011567640
        0.0029032555   0.0000269491  -0.0004454669  -0.0042803800  -0.0005199549
       -0.0020001632   0.0033534736   0.0060675958   0.0123082604   0.0023255967
        0.0034498830   0.0103911243   0.0013202778  -0.0009588611   0.0006070689
       -0.0035665995   0.0043400613  -0.0024775654   0.0003010756   0.0003817197
       -0.0004963738   0.0003968229  -0.0001112419  -0.0007102199
       -0.0005807617   0.0017906220  -0.0012689199   0.0012225103  -0.0087318461
        0.0023943409  -0.0067976229   0.0016765617  -0.0072835932   0.0078041156
       -0.0621578472  -0.0225278062  -0.1283016575   0.2907650060   0.1535133877
        0.0923477956  -0.1784687247  -0.0359711891   0.0011897345  -0.0145164267
       -0.0533492948   0.0275372947  -0.0270695897  -0.0084925838  -0.0001959617
        0.0007807318  -0.0049260005   0.0010602563   0.0050569437   0.0015995360
        0.0009186576   0.0002553105   0.0003090950  -0.0013625252   0.0006781060
       -0.0005674422   0.0010740309   0.0092487497   0.0082680716  -0.0004164659
       -0.0134945356  -0.0347158294   0.0015995467  -0.0028646645   0.0004636118
        0.0042242950  -0.0033687429   0.0020300538  -0.0008137359  -0.0000233899
        0.0004861182  -0.0005095062   0.0004437358   0.0000384439
       -0.0012675580   0.0015918147  -0.0029987586  -0.0000368691  -0.0066779092
        0.0026841405  -0.0159721174  -0.0068576187  -0.0232334765  -0.0293849283
       -0.0185960675  -0.1756122968   0.0109174569   0.1535133877   0.4097919476
        0.0243112151  -0.0537081661  -0.0865887999   0.0177848589  -0.0596160114
       -0.0751931782  -0.0059406874   0.0035589189   0.0076879434  -0.0000236863
       -0.0014281041  -0.0012789050   0.0007564065   0.0032856582   0.0008479658
        0.0024232753   0.0009132823   0.0018262190  -0.0024920478   0.0007527222
       -0.0015429580   0.0010080331  -0.0052090868  -0.0401527073   0.0001814588
       -0.0134673429  -0.0149777506  -0.0008437399   0.0008871822  -0.0008163426
       -0.0015326674   0.0015806811  -0.0008901235   0.0000067781  -0.0001616954
        0.0001171319   0.0001048188  -0.0003616453   0.0003299489
        0.0007802939   0.0016316172   0.0010654819  -0.0009280521  -0.0067769265
       -0.0019638151  -0.0001111768   0.0000779304  -0.0016184500   0.0006663563
       -0.0067216496   0.0107101870  -0.1010821431   0.0923477956   0.0243112151
        0.3141022572  -0.1180851812   0.1322457516  -0.0955156709  -0.0114295926
       -0.1370924498  -0.1012283515   0.0345111602  -0.0185655425   0.0077022795
       -0.0088606807  -0.0054179915   0.0015286308   0.0049384953   0.0040972983
       -0.0008401183  -0.0012025572  -0.0001450021  -0.0006194665   0.0000807338
       -0.0000817464   0.0002913574   0.0007359054   0.0004264300   0.0005149783
       -0.0006248625  -0.0018102792  -0.0221960948   0.0172096129  -0.0120628540
       -0.0022197030   0.0046681810   0.0005279930   0.0004363159  -0.0010440519
        0.0016895301  -0.0012816924  -0.0014559296   0.0036842437
        0.0002560539  -0.0027024471   0.0009270360  -0.0012254934   0.0124921289
       -0.0023602398   0.0030965099  -0.0014665068   0.0030067801  -0.0073230538
       -0.0128331689  -0.0201190890   0.0865563324  -0.1784687247  -0.0537081661
       -0.1180851812   0.3856888490   0.0823745162  -0.0054586899  -0.0728715976
       -0.0460428632   0.0277595390  -0.1039947145   0.0200715148   0.0013294730
       -0.0041000483   0.0151231294  -0.0015800800  -0.0085835492  -0.0040630408
       -0.0010291503   0.0006315382  -0.0005188375   0.0002475900  -0.0002410888
       -0.0002092041  -0.0002670716   0.0010439639   0.0039540950   0.0005912913
       -0.0014730074  -0.0022756727  -0.0054522015   0.0095342210  -0.0037012852
        0.0193591547  -0.0236468387   0.0070825563   0.0007853968   0.0013246890
       -0.0008514500   0.0004395807  -0.0003336980   0.0013102205
        0.0033923784   0.0007369578   0.0051443625  -0.0054530665  -0.0005249004
       -0.0084729740   0.0015999865   0.0002727431   0.0027647581   0.0110712166
       -0.0218521969  -0.0180351011   0.0104409434  -0.0359711891  -0.0865887999
        0.1322457516   0.0823745162   0.8424780621  -0.1264123925  -0.0613745818
       -0.6504936211  -0.0215261579   0.0310050516  -0.0741386949  -0.0097967430
        0.0147740347  -0.0161165532   0.0006123234   0.0012008707  -0.0005587910
       -0.0009234141  -0.0009473805   0.0003378316   0.0000784806  -0.0001192315
        0.0001947083   0.0007703668  -0.0009091523  -0.0002683940   0.0008070930
       -0.0008455802  -0.0022993229  -0.0047493816   0.0008901694   0.0003895465
        0.0072208581  -0.0108229517   0.0073975207  -0.0003379639   0.0011705584
        0.0003211040   0.0009597211   0.0009422624  -0.0020556416
       -0.0004449985  -0.0005434651  -0.0006771675   0.0007973787   0.0018923511
        0.0012625632   0.0003901022  -0.0001114204   0.0005318888   0.0025179956
        0.0049512670  -0.0007280071   0.0145767416   0.0011897345   0.0177848589
       -0.0955156709  -0.0054586899  -0.1264123925   0.0771475950  -0.0126352559
        0.1500491734   0.0038774360   0.0085859794  -0.0374492601  -0.0038777575
        0.0045619877  -0.0008890897  -0.0006052776  -0.0012363706  -0.0023836002
        0.0001019411   0.0002571768   0.0000658214   0.0002367843  -0.0000459210
        0.0000507389  -0.0001386291  -0.0003161873  -0.0008662053  -0.0000562482
        0.0002950267   0.0008767529   0.0007764433  -0.0004854786   0.0006934101
        0.0001466853  -0.0013296666  -0.0005216159  -0.0004130789  -0.0001536424
        0.0000094320   0.0004825577   0.0005825746  -0.0013973013
       -0.0001728477   0.0006864390  -0.0003431877   0.0004526380  -0.0025779166
        0.0007633681  -0.0004739500   0.0005327585  -0.0001905587   0.0066112585
       -0.0024710904  -0.0030874796  -0.0003120518  -0.0145164267  -0.0596160114
       -0.0114295926  -0.0728715976  -0.0613745818  -0.0126352559   0.0848115606
        0.0972945790   0.0147067648   0.0063891203   0.0240237548   0.0018489675
       -0.0010258943   0.0007883729   0.0001865814   0.0015298678   0.0014225022
        0.0001372627  -0.0001711007   0.0001014646  -0.0000730814   0.0001416028
        0.0000624014  -0.0000011501  -0.0006978639  -0.0015191671  -0.0002200402
       -0.0000422678  -0.0012107954   0.0024421932  -0.0019408647   0.0021547324
       -0.0009629064   0.0022852450   0.0010074520   0.0001249550  -0.0001772596
       -0.0001926352  -0.0002297448   0.0001156884  -0.0000842104
       -0.0020424432  -0.0005085616  -0.0028878995   0.0035461750   0.0007804200
        0.0049966216  -0.0005452062  -0.0006873558  -0.0006092695   0.0049742117
       -0.0061997630  -0.0004953672   0.0104951277  -0.0533492948  -0.0751931782
       -0.1370924498  -0.0460428632  -0.6504936211   0.1500491734   0.0972945790
        0.7824607978  -0.0237110026   0.0046181553  -0.0485680258  -0.0048895849
        0.0043690495   0.0004587002  -0.0007209851  -0.0006823038  -0.0029437458
        0.0001012643   0.0004182617  -0.0003547932  -0.0002394486   0.0002771254
       -0.0000471724  -0.0006146825  -0.0002991578  -0.0004987329  -0.0005826208
       -0.0003181653  -0.0023758219  -0.0014044931   0.0016614881  -0.0023775669
        0.0025703563  -0.0012420357  -0.0000027639  -0.0003895717  -0.0008670080
        0.0002489240   0.0004961800   0.0007774300  -0.0013170851
       -0.0000035899  -0.0001775123   0.0002294210   0.0009838230   0.0017647468
        0.0000428218   0.0003610994   0.0001415044   0.0001226664  -0.0009444464
       -0.0017312195   0.0004246148  -0.0059117429   0.0275372947  -0.0059406874
       -0.1012283515   0.0277595390  -0.0215261579   0.0038774360   0.0147067648
       -0.0237110026   0.4647055468   0.0205485716   0.0086764485  -0.0755984598
       -0.0140939418   0.0417666238   0.0043391365   0.0025780601  -0.0159832465
        0.0001645353   0.0000023215  -0.0000416821  -0.0000566695   0.0000104984
        0.0000271149   0.0000395485   0.0000141070   0.0006119845   0.0001821139
       -0.0001141844   0.0003662018  -0.2435655409  -0.0780393929  -0.0119300288
       -0.0404986019   0.0057998604   0.0041044229  -0.0098717857  -0.0087846331
        0.0248662081   0.0030259490   0.0020776153  -0.0021057232
       -0.0005531379   0.0005218284  -0.0003291540   0.0010197915  -0.0016346728
       -0.0004490610  -0.0006072748   0.0002648795  -0.0002705373  -0.0016001579
        0.0008301340   0.0023670469   0.0316368086  -0.0270695897   0.0035589189
        0.0345111602  -0.1039947145   0.0310050516   0.0085859794   0.0063891203
        0.0046181553   0.0205485716   0.4715796175   0.0383607257  -0.0103028548
       -0.0766309388   0.0301004288   0.0024492994   0.0067855723  -0.0118997373
        0.0001501884  -0.0013688769  -0.0009962752   0.0001792209   0.0001312242
       -0.0003233970   0.0001754386   0.0001326025  -0.0000034059  -0.0000657475
        0.0004347156  -0.0002035163  -0.0841352280  -0.0691352569  -0.0048996160
        0.0059094100  -0.1981577542  -0.1137484730   0.0016054864   0.0023922055
       -0.0015011376  -0.0095069541  -0.0114700961   0.0246139833
       -0.0008851666  -0.0007633545  -0.0001659752   0.0012160355   0.0045344159
        0.0018548417  -0.0001092668  -0.0007032162   0.0000588228   0.0001411835
       -0.0003756033  -0.0007462644   0.0067530139  -0.0084925838   0.0076879434
       -0.0185655425   0.0200715148  -0.0741386949  -0.0374492601   0.0240237548
       -0.0485680258   0.0086764485   0.0383607257   0.4832612649   0.0366753866
        0.0347466682  -0.1489234797  -0.0037767874  -0.0036242719  -0.0387846410
        0.0002279883  -0.0003703969  -0.0004315920   0.0003640441  -0.0001432351
       -0.0001490247   0.0000287541  -0.0001230022  -0.0000060545   0.0000749565
       -0.0000457414  -0.0001223346  -0.0071116391  -0.0029099633  -0.0374787761
        0.0039047667  -0.1131924691  -0.1234805521   0.0068680773   0.0032172866
       -0.0081725673   0.0029670073   0.0057894716  -0.0116948906
        0.0034152310  -0.0029478420  -0.0042956336  -0.0109336427  -0.0116222446
       -0.0000185275  -0.0020758192   0.0013852358   0.0012613275   0.0010584926
        0.0002620119  -0.0007317891  -0.0007762043  -0.0001959617  -0.0000236863
        0.0077022795   0.0013294730  -0.0097967430  -0.0038777575   0.0018489675
       -0.0048895849  -0.0755984598  -0.0103028548   0.0366753866   0.4822947496
       -0.0318291854  -0.0191631710  -0.0888751186  -0.0222064321  -0.0608405977
        0.0000030448  -0.0008843932   0.0006357804  -0.0000118949   0.0002087690
       -0.0001047645  -0.0003414669   0.0012252128   0.0003382409  -0.0002125251
       -0.0001231514   0.0000133979  -0.0113700534  -0.0089559809   0.0256392401
        0.0006280100  -0.0008119907   0.0020281811  -0.2497337435   0.0412619867
        0.0368689018  -0.0512951215   0.0423583801  -0.0035959588
       -0.0053520129  -0.0077153001  -0.0034504004  -0.0134452709  -0.0150084117
       -0.0229283040  -0.0005749376   0.0019806415  -0.0008208163   0.0008741475
       -0.0004200269  -0.0000836692   0.0012622635   0.0007807318  -0.0014281041
       -0.0088606807  -0.0041000483   0.0147740347   0.0045619877  -0.0010258943
        0.0043690495  -0.0140939418  -0.0766309388   0.0347466682  -0.0318291854
        0.4901792627  -0.0256534605  -0.0176926932  -0.0743089169  -0.0183981644
       -0.0002575774  -0.0002515995   0.0003601592  -0.0003653209   0.0001092684
       -0.0001158430   0.0005887238  -0.0021738647   0.0001747091  -0.0003488098
       -0.0005482335   0.0003950265  -0.0055112689  -0.0023096395   0.0103430603
        0.0063864182   0.0030416265  -0.0169880752   0.0384478420  -0.0501945510
       -0.0056898341   0.0462103169  -0.2614041056   0.0303939637
       -0.0006931173   0.0017025236   0.0035894556  -0.0002975693  -0.0223113931
       -0.0041460600  -0.0001039363   0.0006576390  -0.0007910647   0.0002643164
        0.0004871068   0.0009455396   0.0015269351  -0.0049260005  -0.0012789050
       -0.0054179915   0.0151231294  -0.0161165532  -0.0008890897   0.0007883729
        0.0004587002   0.0417666238   0.0301004288  -0.1489234797  -0.0191631710
       -0.0256534605   0.4037597376  -0.0642686584  -0.0223072289  -0.1331138236
        0.0001492035   0.0002772998  -0.0000992088  -0.0000052974  -0.0001377155
        0.0001924057   0.0004765448  -0.0003626344   0.0001745641  -0.0000006492
        0.0001054724  -0.0000081376   0.0046914466   0.0007369517  -0.0039808363
        0.0071731846   0.0029185477  -0.0202761346   0.0375075208  -0.0057680528
       -0.0423759528  -0.0027162956   0.0285690136  -0.0380102467
       -0.0179814801  -0.0448934227  -0.0294287471  -0.0548787703  -0.0383462956
       -0.0122163235   0.0119924914   0.0030714755  -0.0063249272   0.0007110143
       -0.0019982038   0.0000790643  -0.0000877723   0.0010602563   0.0007564065
        0.0015286308  -0.0015800800   0.0006123234  -0.0006052776   0.0001865814
       -0.0007209851   0.0043391365   0.0024492994  -0.0037767874  -0.0888751186
       -0.0176926932  -0.0642686584   0.1673351127   0.1171059645   0.1475527471
       -0.0007029916   0.0026406337  -0.0017350411   0.0002776341   0.0005702586
       -0.0007580999   0.0001518382  -0.0003210689   0.0001674053   0.0005879785
       -0.0002359408   0.0003590366   0.0009210808   0.0008172133   0.0010132644
       -0.0006296108   0.0001733220   0.0008914867  -0.0249730241  -0.0169101033
       -0.0283797937   0.0008891280  -0.0060971966  -0.0038223709
       -0.0397217359  -0.0345195180  -0.0477969447  -0.0258678993  -0.2449266916
        0.0222790302  -0.0058623000  -0.0443892064   0.0068248100  -0.0039937835
       -0.0011542771  -0.0032211001  -0.0012955729   0.0050569437   0.0032856582
        0.0049384953  -0.0085835492   0.0012008707  -0.0012363706   0.0015298678
       -0.0006823038   0.0025780601   0.0067855723  -0.0036242719  -0.0222064321
       -0.0743089169  -0.0223072289   0.1171059645   0.4177480737   0.0695766776
        0.0004363595  -0.0020648210   0.0001844649   0.0011133134  -0.0054230975
        0.0045051818   0.0010139259   0.0002829700  -0.0002573561   0.0004548487
        0.0006522477  -0.0001425959   0.0003786907   0.0004606707   0.0006850435
       -0.0003748889   0.0008513917   0.0001954132  -0.0058266598   0.0033711238
       -0.0025572647  -0.0216340151  -0.0213687838  -0.0281480839
       -0.0331741981  -0.0550741674  -0.0226147857  -0.0164674727   0.0030115881
       -0.0666101014  -0.0005737650   0.0212687797   0.0071565996  -0.0002067015
        0.0003100181  -0.0008088269  -0.0011567640   0.0015995360   0.0008479658
        0.0040972983  -0.0040630408  -0.0005587910  -0.0023836002   0.0014225022
       -0.0029437458  -0.0159832465  -0.0118997373  -0.0387846410  -0.0608405977
       -0.0183981644  -0.1331138236   0.1475527471   0.0695766776   0.2731064149
       -0.0000932572  -0.0009314517   0.0004417255  -0.0014665278   0.0039571662
       -0.0026754610  -0.0002703628   0.0000899385  -0.0000327332  -0.0002975195
       -0.0003657452  -0.0000440948  -0.0016516091  -0.0008147465   0.0035754219
        0.0006251654   0.0016949911  -0.0053667657  -0.0138424097  -0.0013935585
       -0.0059611629  -0.0038671790  -0.0099905857  -0.0056131947
       -0.0018992249   0.0005383087  -0.0006421822   0.0054971440  -0.0011767857
       -0.0023555658  -0.1236433970  -0.0032765450   0.1116814633  -0.0241218974
       -0.0021682254   0.0203001358   0.0029032555   0.0009186576   0.0024232753
       -0.0008401183  -0.0010291503  -0.0009234141   0.0001019411   0.0001372627
        0.0001012643   0.0001645353   0.0001501884   0.0002279883   0.0000030448
       -0.0002575774   0.0001492035  -0.0007029916   0.0004363595  -0.0000932572
        0.1452214590   0.0042003909  -0.1298655724   0.0023821668   0.0008447384
        0.0004276561  -0.0048029223   0.0005423040  -0.0014854551  -0.0012344695
       -0.0003163783  -0.0000438102   0.0009132173   0.0001647793   0.0000933320
        0.0000376102   0.0001512794   0.0000143268   0.0000194818   0.0000624944
        0.0000398922   0.0000011652   0.0000778986  -0.0000492807
        0.0024240177  -0.0015004393   0.0001101353  -0.0134257291   0.0008045380
        0.0200885003  -0.0065666946  -0.0375069636   0.0082662082  -0.0031309123
        0.0009180938   0.0003086887   0.0000269491   0.0002553105   0.0009132823
       -0.0012025572   0.0006315382  -0.0009473805   0.0002571768  -0.0001711007
        0.0004182617   0.0000023215  -0.0013688769  -0.0003703969  -0.0008843932
       -0.0002515995   0.0002772998   0.0026406337  -0.0020648210  -0.0009314517
        0.0042003909   0.0446502727  -0.0029658605   0.0157771425  -0.0015727388
       -0.0239146099  -0.0010640779  -0.0001048118  -0.0000946220   0.0001846250
       -0.0000710357   0.0002370877   0.0006176349  -0.0024952967  -0.0011788222
        0.0000967974  -0.0000380660  -0.0000001767   0.0000442797  -0.0001163808
       -0.0001282962   0.0000023951   0.0000023776  -0.0000878476
       -0.0032682309   0.0017266141  -0.0001500417   0.0104333184   0.0035916262
       -0.0185097439   0.1179645283   0.0045352657  -0.1887886164  -0.0029870365
       -0.0003740665   0.0055138765  -0.0004454669   0.0003090950   0.0018262190
       -0.0001450021  -0.0005188375   0.0003378316   0.0000658214   0.0001014646
       -0.0003547932  -0.0000416821  -0.0009962752  -0.0004315920   0.0006357804
        0.0003601592  -0.0000992088  -0.0017350411   0.0001844649   0.0004417255
       -0.1298655724  -0.0029658605   0.2166585030   0.0111290299  -0.0042352126
       -0.0163257537  -0.0013255534  -0.0004966005  -0.0001036086  -0.0001386463
        0.0000463671  -0.0002864192  -0.0000875193  -0.0010058300   0.0004237350
       -0.0001638092  -0.0001988998  -0.0000784100  -0.0000275063  -0.0000249227
        0.0000093797   0.0000025882  -0.0000385516  -0.0000830827
       -0.0008284103   0.0001161040  -0.0004401935   0.0029501111   0.0053443544
        0.0045381013  -0.0452960368  -0.0272878527  -0.0167309947  -0.0090306732
       -0.0200800810  -0.0149857993  -0.0042803800  -0.0013625252  -0.0024920478
       -0.0006194665   0.0002475900   0.0000784806   0.0002367843  -0.0000730814
       -0.0002394486  -0.0000566695   0.0001792209   0.0003640441  -0.0000118949
       -0.0003653209  -0.0000052974   0.0002776341   0.0011133134  -0.0014665278
        0.0023821668   0.0157771425   0.0111290299   0.0560404863   0.0282433127
        0.0220721424  -0.0019427776  -0.0003167887   0.0000634045  -0.0000313998
       -0.0017645552  -0.0018446262   0.0001336328   0.0000137183   0.0000146602
        0.0000971671   0.0001246282  -0.0000137547  -0.0000262259   0.0000799518
       -0.0000417408   0.0000059522   0.0000108690   0.0000005679
       -0.0019724594   0.0025023092  -0.0018704513  -0.0001595542  -0.0288553687