      -----------------------------------------------------------      
     |                   =====================                   |     
     |                           x T B                           |     
     |                   =====================                   |     
     |                         S. Grimme                         |     
     |          Mulliken Center for Theoretical Chemistry        |     
     |                    University of Bonn                     |     
      -----------------------------------------------------------      

   * xtb version 6.7.1 (edcfbbe) compiled by 'conda@afd1a870197c' on 2025-04-11

   xtb is free software: you can redistribute it and/or modify it under
   the terms of the GNU Lesser General Public License as published by
   the Free Software Foundation, either version 3 of the License, or
   (at your option) any later version.
   
   xtb is distributed in the hope that it will be useful,
   but WITHOUT ANY WARRANTY; without even the implied warranty of
   MERCHANTABILITY or FITNESS FOR A PARTICULAR PURPOSE.  See the
   GNU Lesser General Public License for more details.
   
   Cite this work as:
   * C. Bannwarth, E. Caldeweyher, S. Ehlert, A. Hansen, P. Pracht,
     J. Seibert, S. Spicher, S. Grimme, WIREs Comput. Mol. Sci., 2020, 11,
     e01493. DOI: 10.1002/wcms.1493
   
   for GFN2-xTB:
   * C. Bannwarth, S. Ehlert and S. Grimme., J. Chem. Theory Comput., 2019,
     15, 1652-1671. DOI: 10.1021/acs.jctc.8b01176
   for GFN1-xTB:
   * S. Grimme, C. Bannwarth, P. Shushkov, J. Chem. Theory Comput., 2017,
     13, 1989-2009. DOI: 10.1021/acs.jctc.7b00118
   for GFN0-xTB:
   * P. Pracht, E. Caldeweyher, S. Ehlert, S. Grimme, ChemRxiv, 2019, preprint.
     DOI: 10.26434/chemrxiv.8326202.v1
   for GFN-FF:
   * S. Spicher and S. Grimme, Angew. Chem. Int. Ed., 2020, 59, 15665-15673.
     DOI: 10.1002/anie.202004239
   
   for ALPB and GBSA implicit solvation:
   * S. Ehlert, M. Stahn, S. Spicher, S. Grimme, J. Chem. Theory Comput.,
     2021, 17, 4250-4261. DOI: 10.1021/acs.jctc.1c00471
   
   for ddCOSMO and CPCM-X implicit solvation:
   * M. Stahn, S. Ehlert, S. Grimme, J. Phys. Chem. A,
     2023, XX, XXXX-XXXX. DOI: 10.1021/acs.jpca.3c04382
   
   for DFT-D4:
   * E. Caldeweyher, C. Bannwarth and S. Grimme, J. Chem. Phys., 2017,
     147, 034112. DOI: 10.1063/1.4993215
   * E. Caldeweyher, S. Ehlert, A. Hansen, H. Neugebauer, S. Spicher,
     C. Bannwarth and S. Grimme, J. Chem. Phys., 2019, 150, 154122.
     DOI: 10.1063/1.5090222
   * E. Caldeweyher, J.-M. Mewes, S. Ehlert and S. Grimme, Phys. Chem. Chem. Phys.
     2020, 22, 8499-8512. DOI: 10.1039/D0CP00502A
   
   for sTDA-xTB:
   * S. Grimme and C. Bannwarth, J. Chem. Phys., 2016, 145, 054103.
     DOI: 10.1063/1.4959605
   
   in the mass-spec context:
   * V. Asgeirsson, C. Bauer and S. Grimme, Chem. Sci., 2017, 8, 4879.
     DOI: 10.1039/c7sc00601b
   * J. Koopman and S. Grimme, ACS Omega 2019, 4, 12, 15120-15133.
     DOI: 10.1021/acsomega.9b02011
   
   for metadynamics refer to:
   * S. Grimme, J. Chem. Theory Comput., 2019, 155, 2847-2862
     DOI: 10.1021/acs.jctc.9b00143
   
   for SPH calculations refer to:
   * S. Spicher and S. Grimme, J. Chem. Theory Comput., 2021, 17, 1701-1714
     DOI: 10.1021/acs.jctc.0c01306
   
   for ONIOM refer to:
   * C. Plett, A. Katbashev, S. Ehlert, S. Grimme, M. Bursch,
     Phys. Chem. Chem. Phys., 2023, 25, 17860-17868. DOI: 10.1039/D3CP02178E
   
   for DIPRO refer to:
   * J. Kohn, N. Gildemeister, S. Grimme, D. Fazzi, A. Hansen,
     J. Chem. Phys., 2023, just accepted.
   
   for PTB refer to:
   * S. Grimme, M. Mueller, A. Hansen, J. Chem. Phys., 2023, 158, 124111.
     DOI: 10.1063/5.0137838
   
   with help from (in alphabetical order)
   P. Atkinson, C. Bannwarth, F. Bohle, G. Brandenburg, E. Caldeweyher
   M. Checinski, S. Dohm, S. Ehlert, S. Ehrlich, I. Gerasimov, C. Hölzer
   A. Katbashev, J. Kohn, J. Koopman, C. Lavigne, S. Lehtola, F. März, M. Müller,
   F. Musil, H. Neugebauer, J. Pisarek, C. Plett, P. Pracht, F. Pultar,
   J. Seibert, P. Shushkov, S. Spicher, M. Stahn, M. Steiner, T. Strunk,
   J. Stückrath, T. Rose, and J. Unsleber
   
 * started run on 2025/06/26 at 15:11:14.695     
$$$$$$$$$$$$$$$$$$$$$$$$$$$$$$$$$$$$$$$$$$$$$$$$$$$$$$$$$$$$$$$$$$$$$$$$
 CONSTRAINTS & SCANS: DEBUG SECTION
$$$$$$$$$$$$$$$$$$$$$$$$$$$$$$$$$$$$$$$$$$$$$$$$$$$$$$$$$$$$$$$$$$$$$$$$
   ID    Z sym.   atoms
    1    8 O      1, 5, 7, 10
    2    6 C      2-4, 6, 8, 9
    3    1 H      11-18
$$$$$$$$$$$$$$$$$$$$$$$$$$$$$$$$$$$$$$$$$$$$$$$$$$$$$$$$$$$$$$$$$$$$$$$$

           -------------------------------------------------
          |                Calculation Setup                |
           -------------------------------------------------

          program call               : xtb ../../pre/conformer_15.xyz --verbose --namespace conformer_15 --json --ohess vtight --alpb Toluene --gfn 2 --parallel 16 --acc 1.0 --iterations 250 --etemp 298.15
          calculation namespace      : conformer_15
          coordinate file            : ../../pre/conformer_15.xyz
          xtbhome directory          : /home/rmrr
          path for xtb               : /home/rmrr
          xcontrol input file        : ../../pre/conformer_15.xyz
          omp threads                :                    16


           -------------------------------------------------
          |                 G F N 2 - x T B                 |
           -------------------------------------------------

        Reference                      10.1021/acs.jctc.8b01176
      * Hamiltonian:
        H0-scaling (s, p, d)           1.850000    2.230000    2.230000
        zeta-weighting                 0.500000
      * Dispersion:
        s8                             2.700000
        a1                             0.520000
        a2                             5.000000
        s9                             5.000000
      * Repulsion:
        kExp                           1.500000    1.000000
        rExp                           1.000000
      * Coulomb:
        alpha                          2.000000
        third order                    shell-resolved
        anisotropic                    true
        a3                             3.000000
        a5                             4.000000
        cn-shift                       1.200000
        cn-exp                         4.000000
        max-rad                        5.000000

      * Solvation model:               ALPB
        Solvent                        Toluene
        Parameter file                 internal GFN2-xTB/ALPB
        Dielectric constant                7.0000E+00
        Reference state                gsolv [1 M gas/solution]
        Free energy shift                  2.2081E-03 Eh       1.3856E+00 kcal/mol
        Temperature                        2.9815E+02 K
        Density                            8.6700E-01 kg/L
        Solvent mass                       7.8110E+01 g/mol
        Interaction kernel             P16
        Born radius scaling (c1)           1.7172E+00
        Born radii integrator          GBOBC
        Born offset                        0.0000E+00 a0       0.0000E+00 AA
        H-bond correction              false
        Ion screening                  false
        Surface tension                    1.0000E-05 Eh       1.5569E+01 dyn/cm
        Grid points                               230 per atom

          ...................................................
          :                      SETUP                      :
          :.................................................:
          :  # basis functions                  48          :
          :  # atomic orbitals                  48          :
          :  # shells                           28          :
          :  # electrons                        56          :
          :  max. iterations                   250          :
          :  Hamiltonian                  GFN2-xTB          :
          :  restarted?                      false          :
          :  GBSA solvation                   true          :
          :  PC potential                    false          :
          :  electronic temp.          298.1500000     K    :
          :  accuracy                    1.0000000          :
          :  -> integral cutoff          0.2500000E+02      :
          :  -> integral neglect         0.1000000E-07      :
          :  -> SCF convergence          0.1000000E-05 Eh   :
          :  -> wf. convergence          0.1000000E-03 e    :
          :  Broyden damping             0.4000000          :
          :  net charge                          0          :
          :  unpaired electrons                  0          :
          ...................................................

 iter      E             dE          RMSdq      gap      omega  full diag
   1    -33.3676482 -0.333676E+02  0.520E+00    5.02       0.0  T
   2    -33.4720723 -0.104424E+00  0.256E+00    4.13       1.0  T
   3    -33.4796673 -0.759502E-02  0.152E+00    4.55       1.0  T
   4    -33.4844555 -0.478818E-02  0.209E-01    4.32       1.0  T
   5    -33.4848861 -0.430572E-03  0.905E-02    4.37       1.0  T
   6    -33.4848846  0.148877E-05  0.251E-02    4.38       1.0  T
   7    -33.4848921 -0.756267E-05  0.701E-03    4.37       3.4  T
   8    -33.4848923 -0.165230E-06  0.256E-03    4.37       9.2  T
   9    -33.4848923 -0.378644E-07  0.115E-03    4.37      20.5  T
  10    -33.4848924 -0.148518E-07  0.216E-04    4.37     109.3  T
  11    -33.4848924 -0.117204E-09  0.922E-05    4.37     255.6  T

   *** convergence criteria satisfied after 11 iterations ***

         #    Occupation            Energy/Eh            Energy/eV
      -------------------------------------------------------------
         1        2.0000           -0.7650947             -20.8193
       ...           ...                  ...                  ...
        22        2.0000           -0.4992730             -13.5859
        23        2.0000           -0.4967830             -13.5182
        24        2.0000           -0.4920718             -13.3900
        25        2.0000           -0.4704585             -12.8018
        26        2.0000           -0.4667589             -12.7012
        27        2.0000           -0.4405675             -11.9885
        28        2.0000           -0.4278715             -11.6430 (HOMO)
        29                         -0.2672244              -7.2715 (LUMO)
        30                         -0.2643945              -7.1945
        31                         -0.0641808              -1.7464
        32                         -0.0590470              -1.6067
        33                          0.0281657               0.7664
       ...                                ...                  ...
        48                          0.5193525              14.1323
      -------------------------------------------------------------
                  HL-Gap            0.1606471 Eh            4.3714 eV
             Fermi-level           -0.3475479 Eh           -9.4573 eV

 SCC (total)                   0 d,  0 h,  0 min,  0.009 sec
 SCC setup                      ...        0 min,  0.000 sec (  1.829%)
 Dispersion                     ...        0 min,  0.000 sec (  0.940%)
 classical contributions        ...        0 min,  0.000 sec (  0.127%)
 integral evaluation            ...        0 min,  0.001 sec (  6.534%)
 iterations                     ...        0 min,  0.008 sec ( 80.599%)
 molecular gradient             ...        0 min,  0.001 sec (  9.112%)
 printout                       ...        0 min,  0.000 sec (  0.706%)

         :::::::::::::::::::::::::::::::::::::::::::::::::::::
         ::                     SUMMARY                     ::
         :::::::::::::::::::::::::::::::::::::::::::::::::::::
         :: total energy             -33.195379252972 Eh    ::
         :: total w/o Gsasa/hb       -33.184985945480 Eh    ::
         :: gradient norm              0.083170519076 Eh/a0 ::
         :: HOMO-LUMO gap              4.371430580439 eV    ::
         ::.................................................::
         :: HOMO orbital eigv.       -11.642975926223 eV    ::
         :: LUMO orbital eigv.        -7.271545345784 eV    ::
         ::.................................................::
         :: SCC energy               -33.484836446983 Eh    ::
         :: -> isotropic ES            0.094695674408 Eh    ::
         :: -> anisotropic ES          0.005963610094 Eh    ::
         :: -> anisotropic XC          0.002284359383 Eh    ::
         :: -> dispersion             -0.013823357648 Eh    ::
         :: -> Gsolv                  -0.016260621695 Eh    ::
         ::    -> Gelec               -0.005867314202 Eh    ::
         ::    -> Gsasa               -0.012601450631 Eh    ::
         ::    -> Ghb                  0.000000000000 Eh    ::
         ::    -> Gshift               0.002208143139 Eh    ::
         :: repulsion energy           0.289457194010 Eh    ::
         :: add. restraining           0.000000000000 Eh    ::
         :: total charge               0.000000000000 e     ::
         ::.................................................::
         :: atomisation energy         5.247069139298 Eh    ::
         :::::::::::::::::::::::::::::::::::::::::::::::::::::

      ----------------------------------------------------------- 
     |                   =====================                   |
     |                        A N C O P T                        |
     |                   =====================                   |
     |               Approximate Normal Coordinate               |
     |                Rational Function Optimizer                |
      ----------------------------------------------------------- 
      ----------------------------------------------------------- 
     |                   =====================                   |
     |                        A N C O P T                        |
     |                   =====================                   |
     |               Approximate Normal Coordinate               |
     |                Rational Function Optimizer                |
      ----------------------------------------------------------- 

          ...................................................
          :                      SETUP                      :
          :.................................................:
          :   optimization level         verytight          :
          :   max. optcycles                   360          :
          :   ANC micro-cycles                  20          :
          :   degrees of freedom                48          :
          :.................................................:
          :   RF solver                   davidson          :
          :   write xtbopt.log                true          :
          :   linear?                        false          :
          :   energy convergence         0.1000000E-06 Eh   :
          :   grad. convergence          0.2000000E-03 Eh/α :
          :   maxmium RF displ.          1.0000000          :
          :   Hlow (freq-cutoff)         0.1000000E-01      :
          :   Hmax (freq-cutoff)         5.0000000          :
          :   S6 in model hess.         20.0000000          :
          ...................................................

generating ANC from exact Hessian ...
Using Lindh-Hessian (1995)
 Shifting diagonal of input Hessian by    4.1926180107846444E-003
 Lowest  eigenvalues of input Hessian
    0.000000    0.000000    0.000000    0.000000    0.000000    0.000000
    0.010000    0.013219    0.017484    0.021463    0.025686    0.027636
    0.042074    0.045228    0.058682    0.059780    0.062704    0.070312
 Highest eigenvalues
    1.349342    1.376158    1.739105    1.750032    2.196692    2.202957


........................................................................
.............................. CYCLE    1 ..............................
........................................................................

 iter      E             dE          RMSdq      gap      omega  full diag
   1    -33.4848924 -0.334849E+02  0.686E-05    4.37       0.0  T
   2    -33.4848924 -0.506333E-10  0.299E-05    4.37     787.4  T
   3    -33.4848924 -0.123777E-10  0.100E-05    4.37    2354.1  T
     SCC iter.                  ...        0 min,  0.002 sec
     gradient                   ...        0 min,  0.001 sec
 * total energy  :   -33.1953793 Eh     change       -0.1663381E-10 Eh
   gradient norm :     0.0831719 Eh/α   predicted     0.0000000E+00 (-100.00%)
   displ. norm   :     0.2723990 α      lambda       -0.1170823E-01
   maximum displ.:     0.1263675 α      in ANC's #15, #10, #14, ...

........................................................................
.............................. CYCLE    2 ..............................
........................................................................

 iter      E             dE          RMSdq      gap      omega  full diag
   1    -33.5014352 -0.335014E+02  0.309E-01    4.58       0.0  T
   2    -33.5015581 -0.122876E-03  0.190E-01    4.55       1.0  T
   3    -33.5015582 -0.125898E-06  0.485E-02    4.56       1.0  T
   4    -33.5015693 -0.110638E-04  0.111E-02    4.55       2.1  T
   5    -33.5015697 -0.389001E-06  0.608E-03    4.55       3.9  T
   6    -33.5015699 -0.160915E-06  0.148E-03    4.55      16.0  T
   7    -33.5015699 -0.194103E-08  0.310E-04    4.55      76.1  T
   8    -33.5015699 -0.158657E-09  0.823E-05    4.55     286.5  T
     SCC iter.                  ...        0 min,  0.004 sec
     gradient                   ...        0 min,  0.001 sec
 * total energy  :   -33.2022947 Eh     change       -0.6915431E-02 Eh
   gradient norm :     0.0212609 Eh/α   predicted    -0.6288502E-02 (  -9.07%)
   displ. norm   :     0.2141117 α      lambda       -0.1854856E-02
   maximum displ.:     0.1570563 α      in ANC's #3, #2, #19, ...

........................................................................
.............................. CYCLE    3 ..............................
........................................................................

 iter      E             dE          RMSdq      gap      omega  full diag
   1    -33.5057425 -0.335057E+02  0.193E-01    4.62       0.0  T
   2    -33.5057632 -0.206825E-04  0.115E-01    4.61       1.0  T
   3    -33.5057623  0.855171E-06  0.203E-02    4.61       1.2  T
   4    -33.5057648 -0.250568E-05  0.428E-03    4.61       5.5  T
   5    -33.5057650 -0.106274E-06  0.232E-03    4.61      10.2  T
   6    -33.5057650 -0.158064E-07  0.764E-04    4.61      30.8  T
   7    -33.5057650 -0.681311E-09  0.335E-04    4.61      70.3  T
     SCC iter.                  ...        0 min,  0.003 sec
     gradient                   ...        0 min,  0.001 sec
 * total energy  :   -33.2030710 Eh     change       -0.7763052E-03 Eh
   gradient norm :     0.0114669 Eh/α   predicted    -0.9699448E-03 (  24.94%)
   displ. norm   :     0.1234353 α      lambda       -0.5130816E-03
   maximum displ.:     0.0780378 α      in ANC's #1, #3, #6, ...

........................................................................
.............................. CYCLE    4 ..............................
........................................................................

 iter      E             dE          RMSdq      gap      omega  full diag
   1    -33.5055943 -0.335056E+02  0.711E-02    4.60       0.0  T
   2    -33.5055969 -0.266289E-05  0.425E-02    4.60       1.0  T
   3    -33.5055970 -0.718255E-07  0.627E-03    4.60       3.8  T
   4    -33.5055973 -0.268819E-06  0.204E-03    4.60      11.6  T
   5    -33.5055973 -0.565543E-08  0.117E-03    4.60      20.1  T
   6    -33.5055973 -0.126290E-08  0.286E-04    4.60      82.4  T
   7    -33.5055973 -0.649422E-09  0.875E-05    4.60     269.3  T
     SCC iter.                  ...        0 min,  0.003 sec
     gradient                   ...        0 min,  0.001 sec
 * total energy  :   -33.2034101 Eh     change       -0.3390794E-03 Eh
   gradient norm :     0.0057931 Eh/α   predicted    -0.2604494E-03 ( -23.19%)
   displ. norm   :     0.1654558 α      lambda       -0.3148932E-03
   maximum displ.:     0.1051839 α      in ANC's #1, #3, #6, ...

........................................................................
.............................. CYCLE    5 ..............................
........................................................................

 iter      E             dE          RMSdq      gap      omega  full diag
   1    -33.5041683 -0.335042E+02  0.110E-01    4.57       0.0  T
   2    -33.5041737 -0.535087E-05  0.651E-02    4.58       1.0  T
   3    -33.5041741 -0.371405E-06  0.736E-03    4.58       3.2  T
   4    -33.5041743 -0.262889E-06  0.267E-03    4.58       8.8  T
   5    -33.5041743 -0.111401E-07  0.145E-03    4.58      16.3  T
   6    -33.5041743 -0.260341E-08  0.456E-04    4.58      51.6  T
   7    -33.5041743 -0.116961E-08  0.181E-04    4.58     130.3  T
     SCC iter.                  ...        0 min,  0.003 sec
     gradient                   ...        0 min,  0.001 sec
 * total energy  :   -33.2036383 Eh     change       -0.2281836E-03 Eh
   gradient norm :     0.0062738 Eh/α   predicted    -0.1617560E-03 ( -29.11%)
   displ. norm   :     0.1977207 α      lambda       -0.2628164E-03
   maximum displ.:     0.1265756 α      in ANC's #1, #3, #6, ...

........................................................................
.............................. CYCLE    6 ..............................
........................................................................

 iter      E             dE          RMSdq      gap      omega  full diag
   1    -33.5033977 -0.335034E+02  0.136E-01    4.56       0.0  T
   2    -33.5034023 -0.461345E-05  0.800E-02    4.56       1.0  T
   3    -33.5034028 -0.522360E-06  0.756E-03    4.56       3.1  T
   4    -33.5034032 -0.371004E-06  0.345E-03    4.56       6.8  T
   5    -33.5034032 -0.230488E-07  0.180E-03    4.56      13.1  T
   6    -33.5034032 -0.742412E-08  0.538E-04    4.56      43.8  T
   7    -33.5034032 -0.763940E-09  0.192E-04    4.56     122.6  T
     SCC iter.                  ...        0 min,  0.003 sec
     gradient                   ...        0 min,  0.001 sec
 * total energy  :   -33.2038164 Eh     change       -0.1781699E-03 Eh
   gradient norm :     0.0102047 Eh/α   predicted    -0.1365454E-03 ( -23.36%)
   displ. norm   :     0.1310351 α      lambda       -0.1620897E-03
   maximum displ.:     0.0847362 α      in ANC's #1, #3, #6, ...

........................................................................
.............................. CYCLE    7 ..............................
........................................................................

 iter      E             dE          RMSdq      gap      omega  full diag
   1    -33.5041902 -0.335042E+02  0.912E-02    4.57       0.0  T
   2    -33.5041919 -0.174649E-05  0.536E-02    4.57       1.0  T
   3    -33.5041916  0.377502E-06  0.877E-03    4.57       2.7  T
   4    -33.5041925 -0.964707E-06  0.249E-03    4.57       9.4  T
   5    -33.5041925 -0.695358E-08  0.108E-03    4.57      21.8  T
   6    -33.5041925 -0.230332E-08  0.258E-04    4.57      91.5  T
   7    -33.5041925 -0.152930E-09  0.955E-05    4.57     246.8  T
     SCC iter.                  ...        0 min,  0.003 sec
     gradient                   ...        0 min,  0.001 sec
 * total energy  :   -33.2039322 Eh     change       -0.1157801E-03 Eh
   gradient norm :     0.0076987 Eh/α   predicted    -0.8243706E-04 ( -28.80%)
   displ. norm   :     0.1015339 α      lambda       -0.1032502E-03
   maximum displ.:     0.0655788 α      in ANC's #1, #3, #2, ...

........................................................................
.............................. CYCLE    8 ..............................
........................................................................

 iter      E             dE          RMSdq      gap      omega  full diag
   1    -33.5052032 -0.335052E+02  0.770E-02    4.59       0.0  T
   2    -33.5052046 -0.138772E-05  0.452E-02    4.58       1.0  T
   3    -33.5052041  0.449116E-06  0.842E-03    4.59       2.8  T
   4    -33.5052050 -0.897909E-06  0.201E-03    4.58      11.7  T
   5    -33.5052050 -0.362251E-08  0.845E-04    4.58      27.9  T
   6    -33.5052050 -0.161685E-08  0.189E-04    4.58     125.0  T
     SCC iter.                  ...        0 min,  0.003 sec
     gradient                   ...        0 min,  0.001 sec
 * total energy  :   -33.2040007 Eh     change       -0.6852381E-04 Eh
   gradient norm :     0.0037049 Eh/α   predicted    -0.5215606E-04 ( -23.89%)
   displ. norm   :     0.0754879 α      lambda       -0.3376570E-04
   maximum displ.:     0.0519653 α      in ANC's #1, #2, #3, ...

........................................................................
.............................. CYCLE    9 ..............................
........................................................................

 iter      E             dE          RMSdq      gap      omega  full diag
   1    -33.5054977 -0.335055E+02  0.538E-02    4.59       0.0  T
   2    -33.5054980 -0.352750E-06  0.315E-02    4.59       1.0  T
   3    -33.5054981 -0.336859E-07  0.302E-03    4.59       7.8  T
   4    -33.5054982 -0.979021E-07  0.126E-03    4.59      18.7  T
   5    -33.5054982 -0.206168E-08  0.599E-04    4.59      39.3  T
   6    -33.5054982 -0.822041E-09  0.143E-04    4.59     164.9  T
     SCC iter.                  ...        0 min,  0.003 sec
     gradient                   ...        0 min,  0.001 sec
 * total energy  :   -33.2040230 Eh     change       -0.2229619E-04 Eh
   gradient norm :     0.0018823 Eh/α   predicted    -0.1697746E-04 ( -23.85%)
   displ. norm   :     0.0588259 α      lambda       -0.1148172E-04
   maximum displ.:     0.0433490 α      in ANC's #1, #2, #3, ...

........................................................................
.............................. CYCLE   10 ..............................
........................................................................

 iter      E             dE          RMSdq      gap      omega  full diag
   1    -33.5060841 -0.335061E+02  0.396E-02    4.60       0.0  T
   2    -33.5060848 -0.700743E-06  0.231E-02    4.60       1.0  T
   3    -33.5060848 -0.208503E-07  0.305E-03    4.60       7.7  T
   4    -33.5060849 -0.433536E-07  0.838E-04    4.60      28.1  T
   5    -33.5060849 -0.257268E-08  0.514E-04    4.60      45.9  T
     SCC iter.                  ...        0 min,  0.002 sec
     gradient                   ...        0 min,  0.001 sec
 * total energy  :   -33.2040270 Eh     change       -0.3974248E-05 Eh
   gradient norm :     0.0022337 Eh/α   predicted    -0.5748018E-05 (  44.63%)
   displ. norm   :     0.0105406 α      lambda       -0.6044126E-05
   maximum displ.:     0.0069088 α      in ANC's #1, #3, #7, ...

........................................................................
.............................. CYCLE   11 ..............................
........................................................................

 iter      E             dE          RMSdq      gap      omega  full diag
   1    -33.5058218 -0.335058E+02  0.951E-03    4.59       0.0  T
   2    -33.5058221 -0.220320E-06  0.566E-03    4.59       4.2  T
   3    -33.5058221 -0.259625E-08  0.213E-03    4.59      11.1  T
   4    -33.5058221 -0.509367E-08  0.416E-04    4.59      56.6  T
   5    -33.5058221 -0.180704E-08  0.155E-04    4.59     152.0  T
     SCC iter.                  ...        0 min,  0.002 sec
     gradient                   ...        0 min,  0.001 sec
 * total energy  :   -33.2040296 Eh     change       -0.2556396E-05 Eh
   gradient norm :     0.0008908 Eh/α   predicted    -0.3023290E-05 (  18.26%)
   displ. norm   :     0.0183203 α      lambda       -0.1650197E-05
   maximum displ.:     0.0120923 α      in ANC's #2, #1, #3, ...

........................................................................
.............................. CYCLE   12 ..............................
........................................................................

 iter      E             dE          RMSdq      gap      omega  full diag
   1    -33.5056656 -0.335057E+02  0.120E-02    4.59       0.0  T
   2    -33.5056657 -0.699246E-07  0.705E-03    4.59       3.3  T
   3    -33.5056657 -0.323575E-08  0.103E-03    4.59      22.9  T
   4    -33.5056657 -0.580945E-08  0.355E-04    4.59      66.4  T
   5    -33.5056657 -0.546194E-09  0.213E-04    4.59     110.7  T
     SCC iter.                  ...        0 min,  0.002 sec
     gradient                   ...        0 min,  0.001 sec
 * total energy  :   -33.2040305 Eh     change       -0.9240254E-06 Eh
   gradient norm :     0.0006256 Eh/α   predicted    -0.8238412E-06 ( -10.84%)
   displ. norm   :     0.0057851 α      lambda       -0.4600962E-06
   maximum displ.:     0.0031429 α      in ANC's #2, #6, #8, ...

........................................................................
.............................. CYCLE   13 ..............................
........................................................................

 iter      E             dE          RMSdq      gap      omega  full diag
   1    -33.5058836 -0.335059E+02  0.486E-03    4.59       0.0  T
   2    -33.5058836 -0.373435E-07  0.290E-03    4.59       8.1  T
   3    -33.5058836 -0.360167E-09  0.846E-04    4.59      27.9  T
   4    -33.5058836 -0.224761E-08  0.181E-04    4.59     130.4  T
     SCC iter.                  ...        0 min,  0.002 sec
     gradient                   ...        0 min,  0.001 sec
 * total energy  :   -33.2040306 Eh     change       -0.1287015E-06 Eh
   gradient norm :     0.0004612 Eh/α   predicted    -0.2296096E-06 (  78.40%)
   displ. norm   :     0.0116515 α      lambda       -0.3778884E-06
   maximum displ.:     0.0085331 α      in ANC's #1, #3, #2, ...

........................................................................
.............................. CYCLE   14 ..............................
........................................................................

 iter      E             dE          RMSdq      gap      omega  full diag
   1    -33.5057674 -0.335058E+02  0.887E-03    4.59       0.0  T
   2    -33.5057674 -0.848808E-08  0.522E-03    4.59       4.5  T
   3    -33.5057674 -0.757922E-09  0.422E-04    4.59      55.8  T
   4    -33.5057674 -0.165022E-08  0.164E-04    4.59     144.1  T
     SCC iter.                  ...        0 min,  0.002 sec
     gradient                   ...        0 min,  0.001 sec
 * total energy  :   -33.2040309 Eh     change       -0.2969764E-06 Eh
   gradient norm :     0.0001908 Eh/α   predicted    -0.1898122E-06 ( -36.09%)
   displ. norm   :     0.0030587 α      lambda       -0.6674838E-07
   maximum displ.:     0.0021500 α      in ANC's #2, #3, #1, ...

........................................................................
.............................. CYCLE   15 ..............................
........................................................................

 iter      E             dE          RMSdq      gap      omega  full diag
   1    -33.5057552 -0.335058E+02  0.159E-03    4.59       0.0  T
   2    -33.5057552 -0.131794E-08  0.939E-04    4.59      25.1  T
   3    -33.5057552  0.548610E-10  0.183E-04    4.59     129.0  T
     SCC iter.                  ...        0 min,  0.002 sec
     gradient                   ...        0 min,  0.001 sec
 * total energy  :   -33.2040310 Eh     change       -0.7093971E-07 Eh
   gradient norm :     0.0000638 Eh/α   predicted    -0.3575811E-07 ( -49.59%)
   displ. norm   :     0.0029580 α      lambda       -0.2802595E-07
   maximum displ.:     0.0018830 α      in ANC's #2, #3, #1, ...

   *** GEOMETRY OPTIMIZATION CONVERGED AFTER 15 ITERATIONS ***

------------------------------------------------------------------------
 total energy gain   :        -0.0086517 Eh       -5.4290 kcal/mol
 total RMSD          :         0.2409968 a0        0.1275 Å
 total power (kW/mol):        -1.5143392 (step) -316.9171 (real)
------------------------------------------------------------------------

 ANCopt (total)                0 d,  0 h,  0 min,  0.072 sec
 optimizer setup                ...        0 min,  0.000 sec (  0.074%)
 model hessian                  ...        0 min,  0.008 sec ( 11.477%)
 ANC generation                 ...        0 min,  0.000 sec (  0.544%)
 coordinate transformation      ...        0 min,  0.000 sec (  0.071%)
 single point calculation       ...        0 min,  0.060 sec ( 84.046%)
 optimization log               ...        0 min,  0.001 sec (  0.993%)
 hessian update                 ...        0 min,  0.000 sec (  0.124%)
 rational function              ...        0 min,  0.001 sec (  1.940%)

================
 final structure:
================
18
 xtb: 6.7.1 (edcfbbe)
O           -1.54057212384452       -0.34036140784570       -2.88593059557687
C           -0.84217743798870       -0.07148629941723       -1.94242459031492
C           -0.38053329213453       -1.16498682109258       -0.98655080687705
C            1.07720853499708       -1.10052580145981       -0.52093553179713
O            1.27593418074825       -0.68775162309051        0.82702924855884
C            0.71537827971762        0.35226164445637        1.44546873716867
O            0.94970328442103        0.50031356954952        2.61739982328245
C           -0.19459887734061        1.32886257977511        0.71022553601126
C            0.24890713065060        1.75926274914126       -0.69120628334522
O           -0.49562662747392        1.20469685304535       -1.77051476649076
H           -1.04703914683013       -1.19918313634171       -0.12080565220818
H           -0.54079335399180       -2.09644375278222       -1.53352755495574
H            1.68624821555430       -0.49202858099862       -1.19826645893670
H            1.49819057507871       -2.10995517435275       -0.52220590116459
H           -1.20954709673912        0.92471990017255        0.67207528946592
H           -0.23857027109113        2.20725821230921        1.35750553471906
H            1.32040666618348        1.58790864354900       -0.84118435026808
H            0.07072536008341        2.83187744538277       -0.80914067727104

 Bond Distances (Angstroems)
 ---------------------------
O1-C2=1.2043         C2-O1=1.2043         C2-C3=1.5240         C2-O10=1.3335        C3-C2=1.5240         C3-C4=1.5317         
C3-H11=1.0931        C3-H12=1.0920        C4-C3=1.5317         C4-O5=1.4237         C4-H13=1.0954        C4-H14=1.0937        
O5-C4=1.4237         O5-C6=1.3335         C6-O5=1.3335         C6-O7=1.2043         C6-C8=1.5239         O7-C6=1.2043         
C8-C6=1.5239         C8-C9=1.5317         C8-H15=1.0931        C8-H16=1.0920        C9-C8=1.5317         C9-O10=1.4237        
C9-H17=1.0954        C9-H18=1.0937        O10-C2=1.3335        O10-C9=1.4237        H11-C3=1.0931        H12-C3=1.0920        
H13-C4=1.0954        H14-C4=1.0937        H15-C8=1.0931        H16-C8=1.0920        H17-C9=1.0954        H18-C9=1.0937        
 C  H  Rav=1.0936 sigma=0.0012  Rmin=1.0920  Rmax=1.0954     8
 C  C  Rav=1.5278 sigma=0.0038  Rmin=1.5239  Rmax=1.5317     4
 O  C  Rav=1.3205 sigma=0.0900  Rmin=1.2043  Rmax=1.4237     6

 selected bond angles (degree)
 --------------------
C3-C2-O1=120.46                O10-C2-O1=117.73               O10-C2-C3=121.81               C4-C3-C2=116.66                
H11-C3-C2=109.54               H11-C3-C4=109.93               H12-C3-C2=104.68               H12-C3-C4=109.14               
H12-C3-H11=106.29              O5-C4-C3=115.65                H13-C4-C3=111.38               H13-C4-O5=110.29               
H14-C4-C3=109.10               H14-C4-O5=102.41               H14-C4-H13=107.34              C6-O5-C4=127.34                
O7-C6-O5=117.74                C8-C6-O5=121.81                C8-C6-O7=120.46                C9-C8-C6=116.66                
H15-C8-C6=109.53               H15-C8-C9=109.93               H16-C8-C6=104.69               H16-C8-C9=109.15               
H16-C8-H15=106.30              O10-C9-C8=115.64               H17-C9-C8=111.38               H17-C9-O10=110.29              
H18-C9-C8=109.09               H18-C9-O10=102.42              H18-C9-H17=107.34              C9-O10-C2=127.33               

 selected dihedral angles (degree)
 ---------------------------------
C4-C3-C2-O1=137.95            C4-C3-C2-O10=317.89           H11-C3-C2-O1=263.61           H11-C3-C2-O10= 83.55          
H12-C3-C2-O1= 17.24           H12-C3-C2-O10=197.17          O5-C4-C3-C2=106.87            O5-C4-C3-H11=341.41           
O5-C4-C3-H12=225.20           H13-C4-C3-C2=339.92           H13-C4-C3-H11=214.46          H13-C4-C3-H12= 98.25          
H14-C4-C3-C2=221.62           H14-C4-C3-H11= 96.15          H14-C4-C3-H12=339.94          C6-O5-C4-C3=313.00            
C6-O5-C4-H13= 80.50           C6-O5-C4-H14=194.49           O7-C6-O5-C4=175.91            C8-C6-O5-C4=355.99            
C9-C8-C6-O5=317.88            C9-C8-C6-O7=137.96            H15-C8-C6-O5= 83.52           H15-C8-C6-O7=263.60           
H16-C8-C6-O5=197.15           H16-C8-C6-O7= 17.23           O10-C9-C8-C6=106.90           O10-C9-C8-H15=341.46          
O10-C9-C8-H16=225.24          H17-C9-C8-C6=339.96           H17-C9-C8-H15=214.51          H17-C9-C8-H16= 98.29          
H18-C9-C8-C6=221.65           H18-C9-C8-H15= 96.21          H18-C9-C8-H16=339.98          C9-O10-C2-O1=175.93           
C9-O10-C2-C3=356.00           C2-O10-C9-C8=312.98           C2-O10-C9-H17= 80.47          C2-O10-C9-H18=194.47          
           -------------------------------------------------
          |                Final Singlepoint                |
           -------------------------------------------------

          ...................................................
          :                      SETUP                      :
          :.................................................:
          :  # basis functions                  48          :
          :  # atomic orbitals                  48          :
          :  # shells                           28          :
          :  # electrons                        56          :
          :  max. iterations                   250          :
          :  Hamiltonian                  GFN2-xTB          :
          :  restarted?                      false          :
          :  GBSA solvation                   true          :
          :  PC potential                    false          :
          :  electronic temp.          298.1500000     K    :
          :  accuracy                    1.0000000          :
          :  -> integral cutoff          0.2500000E+02      :
          :  -> integral neglect         0.1000000E-07      :
          :  -> SCF convergence          0.1000000E-05 Eh   :
          :  -> wf. convergence          0.1000000E-03 e    :
          :  Broyden damping             0.4000000          :
          :  net charge                          0          :
          :  unpaired electrons                  0          :
          ...................................................

 iter      E             dE          RMSdq      gap      omega  full diag
   1    -33.5057552 -0.335058E+02  0.460E-05    4.59       0.0  T
   2    -33.5057552 -0.837019E-11  0.289E-05    4.59     816.1  T
   3    -33.5057552 -0.153477E-11  0.170E-05    4.59    1384.5  T

   *** convergence criteria satisfied after 3 iterations ***

         #    Occupation            Energy/Eh            Energy/eV
      -------------------------------------------------------------
         1        2.0000           -0.7695952             -20.9418
       ...           ...                  ...                  ...
        22        2.0000           -0.5023517             -13.6697
        23        2.0000           -0.5000834             -13.6080
        24        2.0000           -0.4922626             -13.3951
        25        2.0000           -0.4695545             -12.7772
        26        2.0000           -0.4632116             -12.6046
        27        2.0000           -0.4413710             -12.0103
        28        2.0000           -0.4278037             -11.6411 (HOMO)
        29                         -0.2590732              -7.0497 (LUMO)
        30                         -0.2517185              -6.8496
        31                         -0.0366633              -0.9977
        32                         -0.0298141              -0.8113
        33                          0.0291497               0.7932
       ...                                ...                  ...
        48                          0.5924198              16.1206
      -------------------------------------------------------------
                  HL-Gap            0.1687305 Eh            4.5914 eV
             Fermi-level           -0.3434385 Eh           -9.3454 eV

 SCC (total)                   0 d,  0 h,  0 min,  0.003 sec
 SCC setup                      ...        0 min,  0.000 sec (  3.302%)
 Dispersion                     ...        0 min,  0.000 sec (  1.740%)
 classical contributions        ...        0 min,  0.000 sec (  0.307%)
 integral evaluation            ...        0 min,  0.000 sec ( 10.310%)
 iterations                     ...        0 min,  0.002 sec ( 53.963%)
 molecular gradient             ...        0 min,  0.001 sec ( 28.183%)
 printout                       ...        0 min,  0.000 sec (  1.837%)

         :::::::::::::::::::::::::::::::::::::::::::::::::::::
         ::                     SUMMARY                     ::
         :::::::::::::::::::::::::::::::::::::::::::::::::::::
         :: total energy             -33.204030973301 Eh    ::
         :: total w/o Gsasa/hb       -33.193611617843 Eh    ::
         :: gradient norm              0.000063374173 Eh/a0 ::
         :: HOMO-LUMO gap              4.591390465494 eV    ::
         ::.................................................::
         :: HOMO orbital eigv.       -11.641132003302 eV    ::
         :: LUMO orbital eigv.        -7.049741537808 eV    ::
         ::.................................................::
         :: SCC energy               -33.505695910323 Eh    ::
         :: -> isotropic ES            0.091856184150 Eh    ::
         :: -> anisotropic ES          0.005107879373 Eh    ::
         :: -> anisotropic XC          0.001594838988 Eh    ::
         :: -> dispersion             -0.013842657352 Eh    ::
         :: -> Gsolv                  -0.015977226770 Eh    ::
         ::    -> Gelec               -0.005557871313 Eh    ::
         ::    -> Gsasa               -0.012627498596 Eh    ::
         ::    -> Ghb                  0.000000000000 Eh    ::
         ::    -> Gshift               0.002208143139 Eh    ::
         :: repulsion energy           0.301664937023 Eh    ::
         :: add. restraining           0.000000000000 Eh    ::
         :: total charge               0.000000000000 e     ::
         ::.................................................::
         :: atomisation energy         5.255720859626 Eh    ::
         :::::::::::::::::::::::::::::::::::::::::::::::::::::

           ------------------------------------------------- 
          |                Numerical Hessian                |
           ------------------------------------------------- 
step length          :   0.00500
SCC accuracy         :   0.30000
Hessian scale factor :   1.00000
frozen atoms in %    :   0.00000    0
RMS gradient         :   0.00006
estimated CPU  time      0.03 min
estimated wall time      0.00 min

writing file <hessian>.

 projected vibrational frequencies (cm⁻¹)
eigval :       -0.00    -0.00     0.00     0.00     0.00     0.00
eigval :       69.19   105.90   149.31   185.83   255.09   287.42
eigval :      333.49   376.56   441.00   517.52   556.43   606.34
eigval :      639.56   655.30   711.40   797.30   893.23   941.11
eigval :      947.58  1008.16  1018.38  1051.03  1083.02  1092.75
eigval :     1117.77  1152.50  1172.51  1223.02  1230.13  1241.34
eigval :     1309.34  1310.62  1338.81  1348.18  1431.49  1454.64
eigval :     1457.40  1486.01  1723.31  1739.85  2924.73  2933.52
eigval :     2966.97  2969.33  2974.40  2978.69  3004.42  3005.90
           -------------------------------------------------
          |                Property Printout                |
           -------------------------------------------------

    * Orbital Energies and Occupations

         #    Occupation            Energy/Eh            Energy/eV
      -------------------------------------------------------------
         1        2.0000           -0.7695952             -20.9418
       ...           ...                  ...                  ...
        16        2.0000           -0.5756742             -15.6649
        17        2.0000           -0.5477464             -14.9049
        18        2.0000           -0.5462534             -14.8643
        19        2.0000           -0.5303385             -14.4312
        20        2.0000           -0.5212673             -14.1844
        21        2.0000           -0.5055073             -13.7556
        22        2.0000           -0.5023517             -13.6697
        23        2.0000           -0.5000834             -13.6080
        24        2.0000           -0.4922627             -13.3951
        25        2.0000           -0.4695546             -12.7772
        26        2.0000           -0.4632116             -12.6046
        27        2.0000           -0.4413710             -12.0103
        28        2.0000           -0.4278037             -11.6411 (HOMO)
        29                         -0.2590733              -7.0497 (LUMO)
        30                         -0.2517186              -6.8496
        31                         -0.0366633              -0.9977
        32                         -0.0298142              -0.8113
        33                          0.0291497               0.7932
        34                          0.0306903               0.8351
        35                          0.0466325               1.2689
        36                          0.0813790               2.2144
        37                          0.0869327               2.3656
        38                          0.0998217               2.7163
        39                          0.1074714               2.9244
       ...                                ...                  ...
        48                          0.5924197              16.1206
      -------------------------------------------------------------
                  HL-Gap            0.1687304 Eh            4.5914 eV
             Fermi-level           -0.3434385 Eh           -9.3454 eV

     #   Z          covCN         q      C6AA      α(0)
     1   8 O        0.857    -0.396    21.611     6.233
     2   6 C        2.692     0.356    20.959     7.492
     3   6 C        3.799    -0.110    22.596     6.768
     4   6 C        3.678     0.071    19.597     6.342
     5   8 O        1.704    -0.249    18.120     5.747
     6   6 C        2.692     0.356    20.959     7.492
     7   8 O        0.857    -0.396    21.611     6.233
     8   6 C        3.799    -0.110    22.596     6.768
     9   6 C        3.678     0.071    19.597     6.342
    10   8 O        1.704    -0.249    18.120     5.747
    11   1 H        0.924     0.084     1.934     2.175
    12   1 H        0.924     0.091     1.872     2.140
    13   1 H        0.924     0.061     2.184     2.311
    14   1 H        0.924     0.091     1.869     2.138
    15   1 H        0.924     0.084     1.934     2.175
    16   1 H        0.924     0.091     1.872     2.140
    17   1 H        0.924     0.061     2.184     2.311
    18   1 H        0.924     0.091     1.869     2.138

 Mol. C6AA /au·bohr⁶  :       3177.388346
 Mol. C8AA /au·bohr⁸  :      70882.375811
 Mol. α(0) /au        :         82.691487


Wiberg/Mayer (AO) data.
largest (>0.10) Wiberg bond orders for each atom

 ---------------------------------------------------------------------------
     #   Z sym  total        # sym  WBO       # sym  WBO       # sym  WBO
 ---------------------------------------------------------------------------
     1   8 O    2.046 --     2 C    1.752    10 O    0.166
     2   6 C    3.918 --     1 O    1.752    10 O    1.140     3 C    0.966
     3   6 C    3.990 --     4 C    0.994     2 C    0.966    12 H    0.965
                            11 H    0.946
     4   6 C    3.925 --     3 C    0.994    14 H    0.964    13 H    0.961
                             5 O    0.943
     5   8 O    2.334 --     6 C    1.140     4 C    0.943     7 O    0.166
     6   6 C    3.918 --     7 O    1.752     5 O    1.140     8 C    0.966
     7   8 O    2.046 --     6 C    1.752     5 O    0.166
     8   6 C    3.990 --     9 C    0.994     6 C    0.966    16 H    0.965
                            15 H    0.946
     9   6 C    3.925 --     8 C    0.994    18 H    0.964    17 H    0.961
                            10 O    0.943
    10   8 O    2.334 --     2 C    1.140     9 C    0.943     1 O    0.166
    11   1 H    0.993 --     3 C    0.946
    12   1 H    0.992 --     3 C    0.965
    13   1 H    0.996 --     4 C    0.961
    14   1 H    0.992 --     4 C    0.964
    15   1 H    0.993 --     8 C    0.946
    16   1 H    0.992 --     8 C    0.965
    17   1 H    0.996 --     9 C    0.961
    18   1 H    0.992 --     9 C    0.964
 ---------------------------------------------------------------------------

Topologies differ in total number of bonds
Writing topology from bond orders to xtbtopo.mol

molecular dipole:
                 x           y           z       tot (Debye)
 q only:        0.413       0.107      -0.203
   full:        0.453       0.118      -0.223       1.318
molecular quadrupole (traceless):
                xx          xy          yy          xz          yz          zz
 q only:        2.803      -0.628      14.885     -14.128       1.032     -17.688
  q+dip:        5.140      -0.695      17.304     -18.358      -0.199     -22.444
   full:        5.401      -0.148      16.649     -18.537       0.306     -22.050

           -------------------------------------------------
          |                Geometry Summary                 |
           -------------------------------------------------

      molecular mass/u    :      144.1255611
   center of mass at/Å    :        0.0838133       0.1786609      -0.3209518
  moments of inertia/u·Å² :        0.1909569E+03   0.5123060E+03   0.6299953E+03
rotational constants/cm⁻¹ :        0.8827978E-01   0.3290540E-01   0.2675835E-01

 * 16 selected distances

     #   Z          #   Z                                           value/Å
     1   8 O        2   6 C                                       1.2042644
     3   6 C        4   6 C                                       1.5316542 (max)
     4   6 C        5   8 O                                       1.4236867
     5   8 O        6   6 C                                       1.3335360
     6   6 C        7   8 O                                       1.2042634
     8   6 C        9   6 C                                       1.5316506
     2   6 C       10   8 O                                       1.3335270
     9   6 C       10   8 O                                       1.4236506
     3   6 C       11   1 H                                       1.0931214
     3   6 C       12   1 H                                       1.0920069 (min)
     4   6 C       13   1 H                                       1.0954340
     4   6 C       14   1 H                                       1.0936980
     8   6 C       15   1 H                                       1.0931180
     8   6 C       16   1 H                                       1.0920092
     9   6 C       17   1 H                                       1.0954301
     9   6 C       18   1 H                                       1.0936909

 * 3 distinct bonds (by element types)

   Z      Z             #   av. dist./Å        max./Å        min./Å
   1 H    6 C           8     1.0935635     1.0954340     1.0920069
   6 C    6 C           2     1.5316524     1.5316542     1.5316506
   6 C    8 O           6     1.3204880     1.4236867     1.2042634

           -------------------------------------------------
          |               Frequency Printout                |
           -------------------------------------------------
 projected vibrational frequencies (cm⁻¹)
eigval :       -0.00    -0.00     0.00     0.00     0.00     0.00
eigval :       69.19   105.90   149.31   185.83   255.09   287.42
eigval :      333.49   376.56   441.00   517.52   556.43   606.34
eigval :      639.56   655.30   711.40   797.30   893.23   941.11
eigval :      947.58  1008.16  1018.38  1051.03  1083.02  1092.75
eigval :     1117.77  1152.50  1172.51  1223.02  1230.13  1241.34
eigval :     1309.34  1310.62  1338.81  1348.18  1431.49  1454.64
eigval :     1457.40  1486.01  1723.31  1739.85  2924.73  2933.52
eigval :     2966.97  2969.33  2974.40  2978.69  3004.42  3005.90
 reduced masses (amu)
   1: 12.71   2: 13.73   3: 13.89   4: 13.13   5: 12.84   6: 12.66   7: 14.61   8: 11.97
   9: 12.28  10:  9.41  11: 12.03  12: 11.21  13: 10.58  14: 11.11  15: 11.16  16: 10.68
  17: 10.20  18: 11.24  19: 12.40  20: 10.89  21: 10.15  22: 11.40  23:  8.68  24:  7.07
  25:  8.67  26:  7.21  27:  9.97  28: 10.76  29: 10.26  30:  8.58  31:  4.90  32:  4.80
  33:  7.32  34:  5.45  35:  4.76  36:  8.59  37:  4.21  38:  4.42  39:  3.95  40:  4.34
  41:  1.84  42:  1.75  43:  1.92  44:  1.75  45: 13.49  46: 13.48  47:  1.86  48:  1.85
  49:  1.82  50:  1.70  51:  1.66  52:  1.77  53:  1.63  54:  1.64
 IR intensities (km·mol⁻¹)
   1:  0.10   2:  0.04   3:  0.06   4:  0.10   5:  0.09   6:  0.10   7: 14.89   8:  8.83
   9: 14.84  10: 12.06  11:  0.57  12:  0.00  13:  0.43  14:  7.74  15: 11.29  16:  0.52
  17: 17.50  18:  5.71  19: 15.25  20:  6.69  21:  0.73  22:  7.96  23: 36.01  24: 59.99
  25: 30.96  26:  1.22  27: 37.53  28: 12.05  29:  4.33  30: 63.62  31: 43.82  32: 67.56
  33: 62.99  34:316.39  35: 18.22  36:487.13  37:  0.36  38: 19.62  39: 58.41  40: 20.66
  41: 11.88  42: 27.32  43: 13.99  44: 13.24  45:******  46: 59.07  47:  9.46  48: 22.62
  49:  1.22  50:  0.73  51:  5.61  52:  9.83  53:  1.39  54:  2.69
 Raman intensities (Ä⁴*amu⁻¹)
   1:  0.00   2:  0.00   3:  0.00   4:  0.00   5:  0.00   6:  0.00   7:  0.00   8:  0.00
   9:  0.00  10:  0.00  11:  0.00  12:  0.00  13:  0.00  14:  0.00  15:  0.00  16:  0.00
  17:  0.00  18:  0.00  19:  0.00  20:  0.00  21:  0.00  22:  0.00  23:  0.00  24:  0.00
  25:  0.00  26:  0.00  27:  0.00  28:  0.00  29:  0.00  30:  0.00  31:  0.00  32:  0.00
  33:  0.00  34:  0.00  35:  0.00  36:  0.00  37:  0.00  38:  0.00  39:  0.00  40:  0.00
Molecule has the following symmetry elements: (C2) 
It seems to be the C2 point group
  41:  0.00  42:  0.00  43:  0.00  44:  0.00  45:  0.00  46:  0.00  47:  0.00  48:  0.00
  49:  0.00  50:  0.00  51:  0.00  52:  0.00  53:  0.00  54:  0.00
 output can be read by thermo (or use thermo option).
 writing <g98.out> molden fake output.
 recommended (thermochemical) frequency scaling factor: 1.0
           -------------------------------------------------
          |             Thermodynamic Functions             |
           -------------------------------------------------

c2  symmetry found (for desy threshold:  0.10E+00) used in thermo

          ...................................................
          :                      SETUP                      :
          :.................................................:
          :  # frequencies                          48      :
          :  # imaginary freq.                       0      :
          :  linear?                             false      :
          :  only rotor calc.                    false      :
          :  symmetry                               c2      :
          :  rotational number                       2      :
          :  scaling factor                  1.0000000      :
          :  rotor cutoff                   50.0000000 cm⁻¹ :
          :  imag. cutoff                  -20.0000000 cm⁻¹ :
          :.................................................:

    mode    ω/cm⁻¹     T·S(HO)/kcal·mol⁻¹    T·S(FR)/kcal·mol⁻¹   T·S(vib)
   ------------------------------------------------------------------------
       1     69.19    -1.24516 ( 78.57%)    -0.96016 ( 21.43%)    -1.18409
       2    105.90    -0.99662 ( 95.27%)    -0.83412 (  4.73%)    -0.98893
       3    149.31    -0.79932 ( 98.76%)    -0.73238 (  1.24%)    -0.79849
       4    185.83    -0.67650 ( 99.48%)    -0.66757 (  0.52%)    -0.67645
       5    255.09    -0.50541 ( 99.85%)    -0.57376 (  0.15%)    -0.50551
       6    287.42    -0.44398 ( 99.91%)    -0.53841 (  0.09%)    -0.44407
   ------------------------------------------------------------------------

   temp. (K)  partition function   enthalpy   heat capacity  entropy
                                   cal/mol     cal/K/mol   cal/K/mol   J/K/mol
 298.15  VIB   145.                 3847.963     27.316     22.568
         ROT  0.300E+06              888.752      2.981     28.042
         INT  0.436E+08             4736.715     30.296     50.610
         TR   0.167E+28             1481.254      4.968     40.789
         TOT                        6217.9691    35.2646    91.3994   382.4151

       T/K    H(0)-H(T)+PV         H(T)/Eh          T*S/Eh         G(T)/Eh
   ------------------------------------------------------------------------
    298.15    0.990896E-02    0.147095E+00    0.434268E-01    0.103668E+00
   ------------------------------------------------------------------------

         :::::::::::::::::::::::::::::::::::::::::::::::::::::
         ::                  THERMODYNAMIC                  ::
         :::::::::::::::::::::::::::::::::::::::::::::::::::::
         :: total free energy         -33.100362644809 Eh   ::
         ::.................................................::
         :: total energy              -33.204030973435 Eh   ::
         :: zero point energy           0.137186167423 Eh   ::
         :: G(RRHO) w/o ZPVE           -0.033517838797 Eh   ::
         :: G(RRHO) contrib.            0.103668328626 Eh   ::
         :::::::::::::::::::::::::::::::::::::::::::::::::::::

optimized geometry written to: xtbopt.xyz


           -------------------------------------------------
          | TOTAL ENERGY              -33.204030973435 Eh   |
          | TOTAL ENTHALPY            -33.056935841523 Eh   |
          | TOTAL FREE ENERGY         -33.100362644809 Eh   |
          | GRADIENT NORM               0.000063572116 Eh/α |
          | HOMO-LUMO GAP               4.591389185470 eV   |
           -------------------------------------------------

------------------------------------------------------------------------
 unit  open   action     filename
   10 false : read       ../../pre/conformer_15.xyz
Note: The following floating-point exceptions are signalling: IEEE_DENORMAL
normal termination of xtb
   10 false : read       ../../pre/conformer_15.xyz
   10 false : read       ../../pre/conformer_15.xyz
   10 false : written    conformer_15.xtbopt.log
   11 false : created    .conformer_15.xtboptok
   10 false : written    conformer_15.hessian
   10 false : written    conformer_15.charges
   10 false : written    conformer_15.wbo
   10 false : written    conformer_15.xtbtopo.mol
   10 false : written    conformer_15.xtbout.json
   10 false : written    conformer_15.vibspectrum
   10  true : written    conformer_15.g98.out
   11 false : written    conformer_15.xtbopt.xyz
   11 false : written    conformer_15.xtbrestart

------------------------------------------------------------------------
 * finished run on 2025/06/26 at 15:11:14.908     
------------------------------------------------------------------------
 total:
 * wall-time:     0 d,  0 h,  0 min,  0.212 sec
 *  cpu-time:     0 d,  0 h,  0 min,  3.374 sec
 * ratio c/w:    15.880 speedup
 SCF:
 * wall-time:     0 d,  0 h,  0 min,  0.010 sec
 *  cpu-time:     0 d,  0 h,  0 min,  0.152 sec
 * ratio c/w:    15.946 speedup
 ANC optimizer:
 * wall-time:     0 d,  0 h,  0 min,  0.075 sec
 *  cpu-time:     0 d,  0 h,  0 min,  1.205 sec
 * ratio c/w:    15.996 speedup
 analytical hessian:
 * wall-time:     0 d,  0 h,  0 min,  0.119 sec
 *  cpu-time:     0 d,  0 h,  0 min,  1.910 sec
 * ratio c/w:    15.994 speedup

